 H2_gas
GAUSSIAN             14 MOL ORBITALS     18 PRIMITIVES        2 NUCLEI
  H    1    (CENTRE  1)   0.00000000  0.00000000  0.69742043  CHARGE =  1.0
  H    2    (CENTRE  2)   0.00000000  0.00000000 -0.69742043  CHARGE =  1.0
CENTRE ASSIGNMENTS    1  1  1  1  1  1  1  1  1  2  2  2  2  2  2  2  2  2
TYPE ASSIGNMENTS      1  1  1  1  1  1  2  3  4  1  1  1  1  1  1  2  3  4
EXPONENTS  0.3386500D+02 0.5094790D+01 0.1158790D+01 0.3258400D+00 0.1027410D+00
EXPONENTS  0.3600000D-01 0.7500000D+00 0.7500000D+00 0.7500000D+00 0.3386500D+02
EXPONENTS  0.5094790D+01 0.1158790D+01 0.3258400D+00 0.1027410D+00 0.3600000D-01
EXPONENTS  0.7500000D+00 0.7500000D+00 0.7500000D+00
MO    1     MO 0.0        OCC NO =    1.9819673  ORB. ENERGY =    0.000000
  0.48266797D-01  0.87066416D-01  0.12835885D+00  0.88367937D-01  0.17294492D-01
 -0.20882461D-03 -0.91351148D-17  0.12509206D-16 -0.20738038D-01  0.48266797D-01
  0.87066416D-01  0.12835885D+00  0.88367937D-01  0.17294492D-01 -0.20882461D-03
  0.66910832D-17  0.28335403D-16  0.20738038D-01
MO    2     MO 0.0        OCC NO =    0.0092556  ORB. ENERGY =    0.000000
  0.10808264D+00  0.19496565D+00  0.28743076D+00  0.21408504D+00  0.46839054D-02
  0.25710929D-02  0.24198972D-16 -0.41167240D-15  0.56056538D-01 -0.10808264D+00
 -0.19496565D+00 -0.28743076D+00 -0.21408504D+00 -0.46839054D-02 -0.25710929D-02
 -0.85899380D-17 -0.44446132D-15  0.56056538D-01
MO    3     MO 0.0        OCC NO =    0.0037394  ORB. ENERGY =    0.000000
 -0.11217231D+00 -0.20234285D+00 -0.29830669D+00  0.16390778D-02  0.60576169D-01
 -0.24286258D-02  0.17230799D-16 -0.19402249D-13  0.24132647D+00 -0.11217231D+00
 -0.20234285D+00 -0.29830669D+00  0.16390778D-02  0.60576169D-01 -0.24286258D-02
 -0.48812862D-17 -0.19424358D-13 -0.24132647D+00
MO    4     MO 0.0        OCC NO =    0.0019738  ORB. ENERGY =    0.000000
 -0.77845152D-16 -0.14042155D-15 -0.20701837D-15  0.30505935D-15 -0.37178685D-16
  0.10813906D-16  0.57784605D+00  0.12681058D-17 -0.39234916D-15 -0.65754050D-17
 -0.11861092D-16 -0.17486377D-16 -0.20368591D-15  0.15163829D-16 -0.75641215D-17
  0.57784605D+00  0.12681058D-17 -0.25396824D-15
MO    5     MO 0.0        OCC NO =    0.0019738  ORB. ENERGY =    0.000000
 -0.64304349D-14 -0.11599587D-13 -0.17100849D-13 -0.39874972D-14  0.36271768D-14
 -0.31798853D-15  0.85067092D-16  0.57784605D+00  0.33840659D-14 -0.55811246D-14
 -0.10067552D-13 -0.14842226D-13  0.25181124D-14  0.23337061D-14 -0.75426324D-16
 -0.87603304D-16  0.57784605D+00  0.11484784D-13
MO    6     MO 0.0        OCC NO =    0.0002778  ORB. ENERGY =    0.000000
  0.25362356D+00  0.45750071D+00  0.67447664D+00 -0.27269525D+00 -0.72957010D-01
  0.77143105D-02  0.11408598D-15  0.13324780D-14 -0.30097854D+00 -0.25362356D+00
 -0.45750071D+00 -0.67447664D+00  0.27269525D+00  0.72957010D-01 -0.77143105D-02
 -0.16213956D-16 -0.65941185D-15 -0.30097854D+00
MO    7     MO 0.0        OCC NO =    0.0002548  ORB. ENERGY =    0.000000
  0.17371231D+00  0.31335222D+00  0.46196377D+00 -0.66700171D-01 -0.12163470D-01
 -0.21174934D-03  0.28834615D-15  0.12426270D-13  0.66746600D+00  0.17371231D+00
  0.31335222D+00  0.46196377D+00 -0.66700171D-01 -0.12163470D-01 -0.21174934D-03
 -0.16656613D-15  0.78336652D-14 -0.66746600D+00
MO    8     MO 0.0        OCC NO =    0.0002139  ORB. ENERGY =    0.000000
 -0.53947841D-15 -0.97314208D-15 -0.14346679D-14  0.41369344D-15  0.93543186D-16
  0.38912991D-16  0.33073584D+00  0.91988165D+00 -0.13328394D-14 -0.20045681D-15
 -0.36159548D-15 -0.53308705D-15 -0.64677861D-16 -0.48300601D-16 -0.48296746D-16
 -0.33073584D+00 -0.91988165D+00  0.13299161D-14
MO    9     MO 0.0        OCC NO =    0.0002139  ORB. ENERGY =    0.000000
  0.19772964D-15  0.35667607D-15  0.52583454D-15 -0.13549166D-15 -0.95181940D-16
  0.82023117D-16  0.91988165D+00 -0.33073584D+00  0.12954579D-15  0.11952353D-15
  0.21560339D-15  0.31785623D-15 -0.26635828D-15  0.18566759D-15 -0.88134889D-16
 -0.91988165D+00  0.33073584D+00 -0.38824695D-15
MO   10     MO 0.0        OCC NO =    0.0000916  ORB. ENERGY =    0.000000
  0.21219292D+00  0.38276575D+00  0.56429761D+00 -0.46872893D+00  0.14406027D+00
 -0.10135826D-01 -0.28700064D-15 -0.18571827D-14 -0.12445104D+00  0.21219292D+00
  0.38276575D+00  0.56429761D+00 -0.46872893D+00  0.14406027D+00 -0.10135826D-01
  0.31537904D-15 -0.22255596D-14  0.12445104D+00
MO   11     MO 0.0        OCC NO =    0.0000275  ORB. ENERGY =    0.000000
  0.14945781D+00  0.26960056D+00  0.39746229D+00  0.88072506D+00 -0.28819765D-01
  0.19813836D-01 -0.96083496D-16  0.15885038D-14 -0.21797944D+01 -0.14945781D+00
 -0.26960056D+00 -0.39746229D+00 -0.88072506D+00  0.28819765D-01 -0.19813836D-01
  0.76434809D-17  0.18151258D-14 -0.21797944D+01
MO   12     MO 0.0        OCC NO =    0.0000100  ORB. ENERGY =    0.000000
 -0.82347701D-01 -0.14854350D+00 -0.21899228D+00  0.11117354D+01 -0.63952117D+00
  0.13495849D+00 -0.57178057D-16  0.63738725D-15 -0.92085895D+00  0.82347701D-01
  0.14854350D+00  0.21899228D+00 -0.11117354D+01  0.63952117D+00 -0.13495849D+00
  0.14359514D-16  0.49050324D-15 -0.92085895D+00
MO   13     MO 0.0        OCC NO =    0.0000004  ORB. ENERGY =    0.000000
  0.47855333D-01  0.86324193D-01  0.12726461D+00 -0.22355953D+00  0.17996362D+00
 -0.65095621D-01  0.11074761D-15 -0.82714382D-15 -0.38937381D-01  0.47855333D-01
  0.86324193D-01  0.12726461D+00 -0.22355953D+00  0.17996362D+00 -0.65095621D-01
 -0.10620706D-15 -0.72713663D-15  0.38937381D-01
MO   14     MO 0.0        OCC NO =    0.0000000  ORB. ENERGY =    0.000000
 -0.16328483D-01 -0.29454253D-01 -0.43423332D-01  0.15886061D+00 -0.34946953D+00
  0.34719762D+00 -0.28891674D-16 -0.83260238D-16  0.40814129D-02  0.16328483D-01
  0.29454253D-01  0.43423332D-01 -0.15886061D+00  0.34946953D+00 -0.34719762D+00
  0.28252746D-16 -0.94357215D-16  0.40814129D-02
END DATA
 TOTAL ENERGY =       -1.160301072980 THE VIRIAL(-V/T)=   2.00309355
