 optimization
GAUSSIAN             63 MOL ORBITALS    364 PRIMITIVES       14 NUCLEI
  C    1    (CENTRE  1)  -0.84528226 -2.30554069  0.00096940  CHARGE =  6.0
  C    2    (CENTRE  2)   0.47190153  0.00014086  0.00001472  CHARGE =  6.0
  C    3    (CENTRE  3)  -0.84525586  2.30567593 -0.00094024  CHARGE =  6.0
  C    4    (CENTRE  4)  -3.48408990  2.29878463 -0.00094798  CHARGE =  6.0
  C    5    (CENTRE  5)  -4.80055559 -0.00000953 -0.00001296  CHARGE =  6.0
  C    6    (CENTRE  6)  -3.48411562 -2.29882554  0.00093554  CHARGE =  6.0
  H    7    (CENTRE  7)   0.21105091 -4.07981934  0.00177899  CHARGE =  1.0
  H    8    (CENTRE  8)   0.21095970  4.08002327 -0.00174013  CHARGE =  1.0
  H    9    (CENTRE  9)  -4.51936375  4.08397645 -0.00174028  CHARGE =  1.0
  H   10    (CENTRE 10)  -6.86529572  0.00000873 -0.00002026  CHARGE =  1.0
  H   11    (CENTRE 11)  -4.51941283 -4.08400899  0.00170938  CHARGE =  1.0
  C   12    (CENTRE 12)   3.25808086 -0.00008192  0.00004482  CHARGE =  6.0
  O   13    (CENTRE 13)   4.61627668  1.98535489  0.00252191  CHARGE =  8.0
  O   14    (CENTRE 14)   4.61596866 -1.98548521 -0.00256785  CHARGE =  8.0
CENTRE ASSIGNMENTS    1  1  1  1  1  1  1  1  1  1  1  1  1  1  1  1  1  1  1  1
CENTRE ASSIGNMENTS    1  1  1  1  1  1  1  1  1  1  1  1  1  1  1  1  2  2  2  2
CENTRE ASSIGNMENTS    2  2  2  2  2  2  2  2  2  2  2  2  2  2  2  2  2  2  2  2
CENTRE ASSIGNMENTS    2  2  2  2  2  2  2  2  2  2  2  2  3  3  3  3  3  3  3  3
CENTRE ASSIGNMENTS    3  3  3  3  3  3  3  3  3  3  3  3  3  3  3  3  3  3  3  3
CENTRE ASSIGNMENTS    3  3  3  3  3  3  3  3  4  4  4  4  4  4  4  4  4  4  4  4
CENTRE ASSIGNMENTS    4  4  4  4  4  4  4  4  4  4  4  4  4  4  4  4  4  4  4  4
CENTRE ASSIGNMENTS    4  4  4  4  5  5  5  5  5  5  5  5  5  5  5  5  5  5  5  5
CENTRE ASSIGNMENTS    5  5  5  5  5  5  5  5  5  5  5  5  5  5  5  5  5  5  5  5
CENTRE ASSIGNMENTS    6  6  6  6  6  6  6  6  6  6  6  6  6  6  6  6  6  6  6  6
CENTRE ASSIGNMENTS    6  6  6  6  6  6  6  6  6  6  6  6  6  6  6  6  7  7  7  7
CENTRE ASSIGNMENTS    7  7  7  7  8  8  8  8  8  8  8  8  9  9  9  9  9  9  9  9
CENTRE ASSIGNMENTS   10 10 10 10 10 10 10 10 11 11 11 11 11 11 11 11 12 12 12 12
CENTRE ASSIGNMENTS   12 12 12 12 12 12 12 12 12 12 12 12 12 12 12 12 12 12 12 12
CENTRE ASSIGNMENTS   12 12 12 12 12 12 12 12 12 12 12 12 13 13 13 13 13 13 13 13
CENTRE ASSIGNMENTS   13 13 13 13 13 13 13 13 13 13 13 13 13 13 13 13 13 13 13 13
CENTRE ASSIGNMENTS   13 13 13 13 13 13 13 13 14 14 14 14 14 14 14 14 14 14 14 14
CENTRE ASSIGNMENTS   14 14 14 14 14 14 14 14 14 14 14 14 14 14 14 14 14 14 14 14
CENTRE ASSIGNMENTS   14 14 14 14
TYPE ASSIGNMENTS      1  1  1  1  1  1  1  1  1  2  2  2  3  3  3  4  4  4  1  2
TYPE ASSIGNMENTS      3  4  1  2  3  4  1  2  3  4  5  6  7  8  9 10  1  1  1  1
TYPE ASSIGNMENTS      1  1  1  1  1  2  2  2  3  3  3  4  4  4  1  2  3  4  1  2
TYPE ASSIGNMENTS      3  4  1  2  3  4  5  6  7  8  9 10  1  1  1  1  1  1  1  1
TYPE ASSIGNMENTS      1  2  2  2  3  3  3  4  4  4  1  2  3  4  1  2  3  4  1  2
TYPE ASSIGNMENTS      3  4  5  6  7  8  9 10  1  1  1  1  1  1  1  1  1  2  2  2
TYPE ASSIGNMENTS      3  3  3  4  4  4  1  2  3  4  1  2  3  4  1  2  3  4  5  6
TYPE ASSIGNMENTS      7  8  9 10  1  1  1  1  1  1  1  1  1  2  2  2  3  3  3  4
TYPE ASSIGNMENTS      4  4  1  2  3  4  1  2  3  4  1  2  3  4  5  6  7  8  9 10
TYPE ASSIGNMENTS      1  1  1  1  1  1  1  1  1  2  2  2  3  3  3  4  4  4  1  2
TYPE ASSIGNMENTS      3  4  1  2  3  4  1  2  3  4  5  6  7  8  9 10  1  1  1  1
TYPE ASSIGNMENTS      1  2  3  4  1  1  1  1  1  2  3  4  1  1  1  1  1  2  3  4
TYPE ASSIGNMENTS      1  1  1  1  1  2  3  4  1  1  1  1  1  2  3  4  1  1  1  1
TYPE ASSIGNMENTS      1  1  1  1  1  2  2  2  3  3  3  4  4  4  1  2  3  4  1  2
TYPE ASSIGNMENTS      3  4  1  2  3  4  5  6  7  8  9 10  1  1  1  1  1  1  1  1
TYPE ASSIGNMENTS      1  2  2  2  3  3  3  4  4  4  1  2  3  4  1  2  3  4  1  2
TYPE ASSIGNMENTS      3  4  5  6  7  8  9 10  1  1  1  1  1  1  1  1  1  2  2  2
TYPE ASSIGNMENTS      3  3  3  4  4  4  1  2  3  4  1  2  3  4  1  2  3  4  5  6
TYPE ASSIGNMENTS      7  8  9 10
EXPONENTS  0.4563240D+04 0.6820240D+03 0.1549730D+03 0.4445530D+02 0.1302900D+02
EXPONENTS  0.1827730D+01 0.2096420D+02 0.4803310D+01 0.1459330D+01 0.2096420D+02
EXPONENTS  0.4803310D+01 0.1459330D+01 0.2096420D+02 0.4803310D+01 0.1459330D+01
EXPONENTS  0.2096420D+02 0.4803310D+01 0.1459330D+01 0.4834560D+00 0.4834560D+00
EXPONENTS  0.4834560D+00 0.4834560D+00 0.1455850D+00 0.1455850D+00 0.1455850D+00
EXPONENTS  0.1455850D+00 0.4380000D-01 0.4380000D-01 0.4380000D-01 0.4380000D-01
EXPONENTS  0.6260000D+00 0.6260000D+00 0.6260000D+00 0.6260000D+00 0.6260000D+00
EXPONENTS  0.6260000D+00 0.4563240D+04 0.6820240D+03 0.1549730D+03 0.4445530D+02
EXPONENTS  0.1302900D+02 0.1827730D+01 0.2096420D+02 0.4803310D+01 0.1459330D+01
EXPONENTS  0.2096420D+02 0.4803310D+01 0.1459330D+01 0.2096420D+02 0.4803310D+01
EXPONENTS  0.1459330D+01 0.2096420D+02 0.4803310D+01 0.1459330D+01 0.4834560D+00
EXPONENTS  0.4834560D+00 0.4834560D+00 0.4834560D+00 0.1455850D+00 0.1455850D+00
EXPONENTS  0.1455850D+00 0.1455850D+00 0.4380000D-01 0.4380000D-01 0.4380000D-01
EXPONENTS  0.4380000D-01 0.6260000D+00 0.6260000D+00 0.6260000D+00 0.6260000D+00
EXPONENTS  0.6260000D+00 0.6260000D+00 0.4563240D+04 0.6820240D+03 0.1549730D+03
EXPONENTS  0.4445530D+02 0.1302900D+02 0.1827730D+01 0.2096420D+02 0.4803310D+01
EXPONENTS  0.1459330D+01 0.2096420D+02 0.4803310D+01 0.1459330D+01 0.2096420D+02
EXPONENTS  0.4803310D+01 0.1459330D+01 0.2096420D+02 0.4803310D+01 0.1459330D+01
EXPONENTS  0.4834560D+00 0.4834560D+00 0.4834560D+00 0.4834560D+00 0.1455850D+00
EXPONENTS  0.1455850D+00 0.1455850D+00 0.1455850D+00 0.4380000D-01 0.4380000D-01
EXPONENTS  0.4380000D-01 0.4380000D-01 0.6260000D+00 0.6260000D+00 0.6260000D+00
EXPONENTS  0.6260000D+00 0.6260000D+00 0.6260000D+00 0.4563240D+04 0.6820240D+03
EXPONENTS  0.1549730D+03 0.4445530D+02 0.1302900D+02 0.1827730D+01 0.2096420D+02
EXPONENTS  0.4803310D+01 0.1459330D+01 0.2096420D+02 0.4803310D+01 0.1459330D+01
EXPONENTS  0.2096420D+02 0.4803310D+01 0.1459330D+01 0.2096420D+02 0.4803310D+01
EXPONENTS  0.1459330D+01 0.4834560D+00 0.4834560D+00 0.4834560D+00 0.4834560D+00
EXPONENTS  0.1455850D+00 0.1455850D+00 0.1455850D+00 0.1455850D+00 0.4380000D-01
EXPONENTS  0.4380000D-01 0.4380000D-01 0.4380000D-01 0.6260000D+00 0.6260000D+00
EXPONENTS  0.6260000D+00 0.6260000D+00 0.6260000D+00 0.6260000D+00 0.4563240D+04
EXPONENTS  0.6820240D+03 0.1549730D+03 0.4445530D+02 0.1302900D+02 0.1827730D+01
EXPONENTS  0.2096420D+02 0.4803310D+01 0.1459330D+01 0.2096420D+02 0.4803310D+01
EXPONENTS  0.1459330D+01 0.2096420D+02 0.4803310D+01 0.1459330D+01 0.2096420D+02
EXPONENTS  0.4803310D+01 0.1459330D+01 0.4834560D+00 0.4834560D+00 0.4834560D+00
EXPONENTS  0.4834560D+00 0.1455850D+00 0.1455850D+00 0.1455850D+00 0.1455850D+00
EXPONENTS  0.4380000D-01 0.4380000D-01 0.4380000D-01 0.4380000D-01 0.6260000D+00
EXPONENTS  0.6260000D+00 0.6260000D+00 0.6260000D+00 0.6260000D+00 0.6260000D+00
EXPONENTS  0.4563240D+04 0.6820240D+03 0.1549730D+03 0.4445530D+02 0.1302900D+02
EXPONENTS  0.1827730D+01 0.2096420D+02 0.4803310D+01 0.1459330D+01 0.2096420D+02
EXPONENTS  0.4803310D+01 0.1459330D+01 0.2096420D+02 0.4803310D+01 0.1459330D+01
EXPONENTS  0.2096420D+02 0.4803310D+01 0.1459330D+01 0.4834560D+00 0.4834560D+00
EXPONENTS  0.4834560D+00 0.4834560D+00 0.1455850D+00 0.1455850D+00 0.1455850D+00
EXPONENTS  0.1455850D+00 0.4380000D-01 0.4380000D-01 0.4380000D-01 0.4380000D-01
EXPONENTS  0.6260000D+00 0.6260000D+00 0.6260000D+00 0.6260000D+00 0.6260000D+00
EXPONENTS  0.6260000D+00 0.3386500D+02 0.5094790D+01 0.1158790D+01 0.3258400D+00
EXPONENTS  0.1027410D+00 0.7500000D+00 0.7500000D+00 0.7500000D+00 0.3386500D+02
EXPONENTS  0.5094790D+01 0.1158790D+01 0.3258400D+00 0.1027410D+00 0.7500000D+00
EXPONENTS  0.7500000D+00 0.7500000D+00 0.3386500D+02 0.5094790D+01 0.1158790D+01
EXPONENTS  0.3258400D+00 0.1027410D+00 0.7500000D+00 0.7500000D+00 0.7500000D+00
EXPONENTS  0.3386500D+02 0.5094790D+01 0.1158790D+01 0.3258400D+00 0.1027410D+00
EXPONENTS  0.7500000D+00 0.7500000D+00 0.7500000D+00 0.3386500D+02 0.5094790D+01
EXPONENTS  0.1158790D+01 0.3258400D+00 0.1027410D+00 0.7500000D+00 0.7500000D+00
EXPONENTS  0.7500000D+00 0.4563240D+04 0.6820240D+03 0.1549730D+03 0.4445530D+02
EXPONENTS  0.1302900D+02 0.1827730D+01 0.2096420D+02 0.4803310D+01 0.1459330D+01
EXPONENTS  0.2096420D+02 0.4803310D+01 0.1459330D+01 0.2096420D+02 0.4803310D+01
EXPONENTS  0.1459330D+01 0.2096420D+02 0.4803310D+01 0.1459330D+01 0.4834560D+00
EXPONENTS  0.4834560D+00 0.4834560D+00 0.4834560D+00 0.1455850D+00 0.1455850D+00
EXPONENTS  0.1455850D+00 0.1455850D+00 0.4380000D-01 0.4380000D-01 0.4380000D-01
EXPONENTS  0.4380000D-01 0.6260000D+00 0.6260000D+00 0.6260000D+00 0.6260000D+00
EXPONENTS  0.6260000D+00 0.6260000D+00 0.8588500D+04 0.1297230D+04 0.2992960D+03
EXPONENTS  0.8737710D+02 0.2567890D+02 0.3740040D+01 0.4211750D+02 0.9628370D+01
EXPONENTS  0.2853320D+01 0.4211750D+02 0.9628370D+01 0.2853320D+01 0.4211750D+02
EXPONENTS  0.9628370D+01 0.2853320D+01 0.4211750D+02 0.9628370D+01 0.2853320D+01
EXPONENTS  0.9056610D+00 0.9056610D+00 0.9056610D+00 0.9056610D+00 0.2556110D+00
EXPONENTS  0.2556110D+00 0.2556110D+00 0.2556110D+00 0.8450000D-01 0.8450000D-01
EXPONENTS  0.8450000D-01 0.8450000D-01 0.1292000D+01 0.1292000D+01 0.1292000D+01
EXPONENTS  0.1292000D+01 0.1292000D+01 0.1292000D+01 0.8588500D+04 0.1297230D+04
EXPONENTS  0.2992960D+03 0.8737710D+02 0.2567890D+02 0.3740040D+01 0.4211750D+02
EXPONENTS  0.9628370D+01 0.2853320D+01 0.4211750D+02 0.9628370D+01 0.2853320D+01
EXPONENTS  0.4211750D+02 0.9628370D+01 0.2853320D+01 0.4211750D+02 0.9628370D+01
EXPONENTS  0.2853320D+01 0.9056610D+00 0.9056610D+00 0.9056610D+00 0.9056610D+00
EXPONENTS  0.2556110D+00 0.2556110D+00 0.2556110D+00 0.2556110D+00 0.8450000D-01
EXPONENTS  0.8450000D-01 0.8450000D-01 0.8450000D-01 0.1292000D+01 0.1292000D+01
EXPONENTS  0.1292000D+01 0.1292000D+01 0.1292000D+01 0.1292000D+01
MO    1     MO 0.0        OCC NO =    1.0000000  ORB. ENERGY =  -18.804022
  0.18542537D-05  0.34518654D-05  0.56782861D-05  0.76249852D-05  0.71792110D-05
  0.58996356D-06 -0.69874248D-05 -0.18566896D-04  0.25029473D-07  0.21520442D-03
  0.20137831D-03  0.15597529D-03  0.61930133D-04  0.57951346D-04  0.44885558D-04
  0.22051736D-07  0.20634991D-07  0.15982598D-07  0.86553573D-04 -0.22664994D-03
 -0.39151717D-04 -0.49231730D-07 -0.19171095D-02 -0.69828993D-04 -0.53431140D-03
  0.51658698D-06 -0.35073740D-02 -0.61390141D-03 -0.45950623D-03  0.21163110D-06
 -0.11552049D-03  0.97276135D-04  0.18244357D-04 -0.63504939D-04  0.54877222D-07
  0.30036935D-06 -0.71864921D-06 -0.13378322D-05 -0.22007214D-05 -0.29551995D-05
 -0.27824317D-05 -0.22865094D-06  0.38706039D-05  0.10284919D-04 -0.13864790D-07
  0.69670885D-04  0.65194783D-04  0.50495879D-04 -0.53449400D-04 -0.50015469D-04
 -0.38738914D-04  0.11218900D-06  0.10498126D-06  0.81312045D-07 -0.52491671D-05
 -0.78012999D-04  0.20607667D-03 -0.68653757D-07  0.50947752D-04  0.14842069D-04
 -0.18458839D-02 -0.17517403D-06  0.13790182D-03  0.39122949D-04 -0.13997614D-02
  0.64648116D-06 -0.41698976D-04  0.42636991D-04 -0.93801426D-06 -0.45112448D-03
 -0.12284455D-05  0.72914153D-09 -0.28836089D-05 -0.53681056D-05 -0.88304832D-05
 -0.11857857D-04 -0.11164619D-04 -0.91747109D-06  0.12297995D-04  0.32678075D-04
 -0.44052328D-07 -0.15115246D-03 -0.14144147D-03 -0.10955188D-03  0.36826187D-04
  0.34460238D-04  0.26690786D-04  0.86011201D-07  0.80485293D-07  0.62338970D-07
 -0.93410376D-04  0.15788351D-03  0.78431928D-05 -0.10704973D-06  0.18176815D-02
  0.16341825D-03 -0.52680287D-03  0.51959685D-06  0.39458593D-02  0.54512704D-03
 -0.45412529D-03  0.19366875D-06  0.11570474D-03 -0.98867156D-04 -0.16837587D-04
 -0.92693755D-06 -0.24600962D-08 -0.26974829D-06  0.70731164D-06  0.13167263D-05
  0.21660023D-05  0.29085776D-05  0.27385355D-05  0.22504369D-06 -0.47410401D-05
 -0.12597831D-04  0.16982757D-07  0.75451468D-04  0.70603984D-04  0.54685515D-04
  0.83716381D-05  0.78337906D-05  0.60675736D-05  0.36663079D-07  0.34307609D-07
  0.26572569D-07  0.54905652D-04 -0.10216578D-03 -0.67887998D-05 -0.27613949D-07
 -0.35514787D-03 -0.10160607D-03  0.18512337D-03 -0.16268536D-06 -0.25380114D-03
  0.24528254D-03  0.22515479D-03 -0.10965230D-06 -0.44557315D-04  0.28978054D-04
  0.15579261D-04 -0.88009174D-05 -0.49271045D-07 -0.12149302D-06 -0.29559688D-06
 -0.55028103D-06 -0.90520713D-06 -0.12155412D-05 -0.11444779D-05 -0.94049368D-07
  0.13198494D-05  0.35070870D-05 -0.47277983D-08  0.62137546D-05  0.58145434D-05
  0.45035886D-05 -0.66880996D-04 -0.62584133D-04 -0.48473830D-04  0.15465966D-06
  0.14472334D-06  0.11209382D-06 -0.23073213D-05 -0.11384233D-04  0.79518420D-04
 -0.13690745D-06 -0.26333465D-04 -0.21480816D-04  0.67855217D-04  0.51424649D-07
  0.54628846D-04  0.11091606D-04  0.30284675D-03 -0.10345532D-06  0.55346494D-05
 -0.48663349D-05 -0.66831453D-06  0.35840287D-04  0.28004886D-07  0.26533930D-08
 -0.17270446D-05 -0.32150539D-05 -0.52887335D-05 -0.71018814D-05 -0.66866891D-05
 -0.54948975D-06  0.97849767D-05  0.26000515D-04 -0.35050511D-07 -0.61643142D-04
 -0.57682793D-04 -0.44677553D-04  0.56724046D-05  0.53079732D-05  0.41112304D-05
  0.39613844D-07  0.37068798D-07  0.28711217D-07 -0.83062506D-04  0.79667759D-04
 -0.58452695D-05 -0.28302908D-07  0.52435021D-03  0.16539967D-03  0.21184938D-03
 -0.16879287D-06 -0.22317001D-03 -0.29545956D-03  0.22831716D-03 -0.12809833D-06
  0.39809523D-04 -0.12376248D-04 -0.27433274D-04 -0.19543678D-04 -0.42429653D-07
  0.99133995D-07 -0.29402306D-06 -0.53037565D-06 -0.78191351D-06 -0.15187003D-04
 -0.35066108D-04  0.91062268D-04  0.63146058D-04 -0.20376732D-06  0.13987560D-05
  0.25231562D-05  0.37197973D-05 -0.21117010D-04  0.96235694D-05 -0.11787150D-03
  0.99455526D-04 -0.23770526D-06  0.38842006D-05  0.70065438D-05  0.10329492D-04
 -0.77567418D-04 -0.30450701D-04  0.23642584D-04  0.30301533D-04  0.49870958D-07
 -0.58445172D-08 -0.10542675D-07 -0.15542682D-07 -0.11392997D-04 -0.56846848D-05
 -0.57412844D-05 -0.42310999D-04 -0.32341171D-07 -0.48581650D-05 -0.87634366D-05
 -0.12919615D-04  0.75520644D-04  0.57948846D-04 -0.38729380D-04  0.31591724D-04
  0.49997562D-07 -0.44179823D-06 -0.82244842D-06 -0.13529199D-05 -0.18167444D-05
 -0.17105333D-05 -0.14056591D-06  0.42945821D-05  0.11411509D-04 -0.15383511D-07
  0.14579059D-03  0.13642407D-03  0.10566572D-03  0.12860144D-02  0.12033927D-02
  0.93207413D-03  0.97564962D-06  0.91296766D-06  0.70712874D-06  0.43142864D-04
 -0.91373563D-04 -0.52082035D-03 -0.74163041D-07  0.10835194D-03  0.11498800D-03
  0.18695555D-02  0.13841497D-05 -0.18391001D-03  0.15141770D-04  0.29564096D-04
 -0.19112491D-06  0.42080712D-04 -0.49178796D-04  0.70980839D-05 -0.14689181D-02
 -0.12618417D-05 -0.11154501D-06  0.53008567D+00  0.97490941D+00  0.15957179D+01
  0.21504322D+01  0.21272355D+01  0.23676738D+00  0.50189106D+00  0.13415777D+01
 -0.19161726D-02 -0.25196106D-02 -0.25869992D-02 -0.19551083D-02 -0.37732658D-02
 -0.38741843D-02 -0.29278902D-02 -0.47983082D-05 -0.49266420D-05 -0.37232784D-05
  0.85933170D-02 -0.64143175D-03 -0.88866584D-03 -0.14103858D-05 -0.34960069D-02
  0.65532136D-03  0.54969599D-03  0.96223571D-06  0.16026222D-03  0.18357689D-05
  0.12211943D-04  0.12093587D-06 -0.21491553D-03  0.58225070D-03 -0.36733516D-03
  0.30897151D-03  0.99529230D-07  0.23896246D-05 -0.40094184D+00 -0.73739396D+00
 -0.12069560D+01 -0.16265262D+01 -0.16089809D+01 -0.17908416D+00 -0.37957788D+00
 -0.10146290D+01  0.14491924D-02  0.17989136D-02  0.18470267D-02  0.13958787D-02
 -0.27088083D-02 -0.27812572D-02 -0.21019174D-02 -0.35575084D-05 -0.36526562D-05
 -0.27604718D-05 -0.66510289D-02  0.60833111D-03 -0.84196507D-03 -0.14332071D-05
  0.28560983D-02 -0.63081225D-03  0.43634981D-03  0.88140533D-06 -0.78110759D-04
 -0.72063000D-05 -0.11436790D-06  0.12375219D-06  0.26627071D-03 -0.54536196D-03
  0.27909125D-03  0.32624860D-03  0.16382699D-06 -0.20782411D-05
MO    2     MO 0.0        OCC NO =    1.0000000  ORB. ENERGY =  -18.803990
 -0.40393292D-05 -0.75195862D-05 -0.12369649D-04 -0.16610362D-04 -0.15639282D-04
 -0.12851839D-05  0.20490381D-04  0.54446780D-04 -0.73398062D-07  0.20576145D-03
  0.19254202D-03  0.14913124D-03  0.83690237D-04  0.78313441D-04  0.60656787D-04
 -0.39394622D-06 -0.36863660D-06 -0.28552330D-06 -0.37187976D-04 -0.22143984D-03
 -0.16712051D-03  0.34455341D-06 -0.99537837D-04  0.35294559D-03  0.46915917D-04
 -0.16243040D-06  0.20929606D-02 -0.16818576D-03  0.43544064D-04  0.53507953D-07
  0.16688648D-04 -0.19364513D-04  0.26758647D-05 -0.22084524D-03  0.21641168D-06
  0.88361353D-07 -0.51939634D-05 -0.96690450D-05 -0.15905488D-04 -0.21358401D-04
 -0.20109740D-04 -0.16525512D-05  0.27972989D-04  0.74329470D-04 -0.10020132D-06
  0.50254179D-03  0.47025529D-03  0.36423090D-03  0.73994233D-05  0.69240371D-05
  0.53629344D-05  0.23615161D-08  0.22097972D-08  0.17115734D-08 -0.37917001D-04
 -0.56286043D-03 -0.28548321D-04 -0.73298808D-08  0.36890669D-03  0.10746361D-03
  0.25642190D-03  0.47475855D-07  0.10004814D-02  0.28167169D-03  0.19352085D-03
 -0.93209182D-07 -0.30073795D-03  0.30737109D-03 -0.66331370D-05  0.62662575D-04
  0.18215247D-06  0.23826291D-06 -0.33813601D-05 -0.62947157D-05 -0.10354748D-04
 -0.13904689D-04 -0.13091789D-04 -0.10758394D-05  0.17811679D-04  0.47328965D-04
 -0.63802751D-07  0.25658221D-03  0.24009773D-03  0.18596497D-03 -0.97423501D-04
 -0.91164394D-04 -0.70610347D-04  0.37874416D-06  0.35441122D-06  0.27450519D-06
 -0.12179325D-04 -0.27475756D-03  0.17152946D-03 -0.32193664D-06 -0.61815215D-03
  0.32024291D-03  0.10056880D-03  0.87395991D-08  0.10621135D-02 -0.32837372D-03
  0.82747986D-04 -0.10565107D-06 -0.15478894D-04  0.78937479D-05  0.75851459D-05
  0.22990631D-03 -0.21953183D-06  0.18378315D-06 -0.38414750D-05 -0.71512623D-05
 -0.11763759D-04 -0.15796754D-04 -0.14873240D-04 -0.12222331D-05  0.19174955D-04
  0.50951445D-04 -0.68686107D-07  0.40396354D-04  0.37801035D-04  0.29278363D-04
  0.87003431D-05  0.81413775D-05  0.63058116D-05 -0.56572809D-07 -0.52938211D-07
 -0.41002691D-07 -0.11096077D-03 -0.68630565D-04 -0.24607575D-05  0.40343557D-07
  0.67005592D-03  0.24819372D-03 -0.12363533D-03  0.25245452D-07 -0.17161233D-02
 -0.21839449D-03 -0.43024028D-04  0.63330609D-07 -0.11318943D-04  0.57004152D-04
 -0.45685209D-04  0.40693745D-04 -0.33966615D-07 -0.75564910D-07 -0.21297247D-05
 -0.39646801D-05 -0.65218615D-05 -0.87577654D-05 -0.82457663D-05 -0.67760951D-06
  0.95081177D-05  0.25264849D-04 -0.34058781D-07  0.44782071D-04  0.41904985D-04
  0.32457030D-04  0.92762560D-05  0.86802901D-05  0.67232202D-05 -0.24546782D-07
 -0.22969740D-07 -0.17790952D-07 -0.16591639D-04 -0.82048440D-04 -0.11023845D-04
  0.21295635D-07 -0.18930403D-03 -0.15474479D-03 -0.94905102D-05 -0.10215385D-07
  0.39058545D-03  0.79786801D-04 -0.41849402D-04  0.17714691D-07  0.39883589D-04
 -0.35096284D-04 -0.47873045D-05 -0.49588507D-05 -0.46747522D-08  0.36824194D-07
 -0.35041785D-05 -0.65233536D-05 -0.10730855D-04 -0.14409738D-04 -0.13567311D-04
 -0.11149163D-05  0.17161369D-04  0.45600971D-04 -0.61473294D-07  0.59458166D-04
  0.55638194D-04  0.43093932D-04 -0.10677571D-04 -0.99915761D-05 -0.77388619D-05
  0.43622735D-07  0.40820132D-07  0.31616770D-07 -0.91819023D-04 -0.93930290D-04
  0.42428909D-05 -0.31706309D-07  0.54814213D-03  0.21130357D-03  0.68408171D-04
  0.29075599D-07 -0.17206549D-02 -0.14368775D-03 -0.19680145D-04 -0.39848249D-07
 -0.23056459D-04  0.62772206D-04 -0.39715747D-04 -0.36756707D-04  0.51229967D-07
 -0.11145134D-06  0.40877589D-05  0.73737339D-05  0.10870827D-04 -0.13102477D-03
 -0.88235608D-04 -0.11135787D-03 -0.14205525D-03  0.19443047D-06  0.38552541D-05
  0.69543284D-05  0.10252513D-04 -0.13018351D-03 -0.94488258D-04 -0.82276435D-04
  0.11951828D-03 -0.12372885D-06 -0.41073085D-05 -0.74089986D-05 -0.10922817D-04
  0.31054857D-05  0.10511779D-03 -0.58782987D-04 -0.88760101D-05  0.10643698D-07
 -0.33527117D-07 -0.60478135D-07 -0.89160713D-07 -0.82187202D-04 -0.40916543D-04
 -0.41411248D-04  0.58904384D-05  0.54658292D-08 -0.28899159D-05 -0.52129961D-05
 -0.76853303D-05 -0.18202100D-04  0.92832376D-04 -0.50185058D-04  0.28724286D-06
 -0.26401196D-07 -0.33235502D-05 -0.61870971D-05 -0.10177717D-04 -0.13666965D-04
 -0.12867963D-04 -0.10574462D-05  0.31532135D-04  0.83786786D-04 -0.11295044D-06
  0.10513157D-02  0.98377249D-03  0.76196982D-03 -0.17861515D-03 -0.16713978D-03
 -0.12945622D-03 -0.14956434D-06 -0.13995537D-06 -0.10840084D-06  0.31101429D-03
 -0.66015017D-03  0.72583519D-04  0.66502831D-08  0.78348547D-03  0.82876911D-03
 -0.25960626D-03 -0.21852578D-06 -0.13244286D-02  0.10903868D-03 -0.40901221D-05
  0.33282718D-07  0.30416548D-03 -0.35632482D-03  0.52159339D-04  0.20413159D-03
  0.18754861D-06 -0.74156341D-06  0.40094566D+00  0.73740099D+00  0.12069675D+01
  0.16265417D+01  0.16089962D+01  0.17908587D+00  0.37976025D+00  0.10151165D+01
 -0.14498887D-02 -0.22980355D-02 -0.23594980D-02 -0.17831756D-02 -0.33893511D-02
 -0.34800015D-02 -0.26299890D-02 -0.44364724D-05 -0.45551287D-05 -0.34425096D-05
  0.59447394D-02 -0.32936096D-04 -0.49593278D-04 -0.15716761D-06 -0.18668020D-02
 -0.94888586D-06  0.34052439D-03  0.44907887D-06  0.27909173D-03 -0.19898542D-04
  0.43564113D-04  0.18482975D-07  0.21837702D-03  0.55056878D-04 -0.27343390D-03
 -0.10502615D-03 -0.29912808D-06  0.11867151D-05  0.53008864D+00  0.97491487D+00
  0.15957268D+01  0.21504443D+01  0.21272474D+01  0.23676871D+00  0.50202880D+00
  0.13419458D+01 -0.19166984D-02 -0.28966463D-02 -0.29741190D-02 -0.22476716D-02
  0.42889313D-02  0.44036416D-02  0.33280242D-02  0.59400828D-05  0.60989541D-05
  0.46092459D-05  0.80594420D-02 -0.20664931D-03  0.29011849D-03  0.54167277D-06
 -0.27480066D-02  0.17746992D-03 -0.47734114D-03 -0.70760965D-06  0.31153736D-03
 -0.18580326D-04 -0.45359729D-04 -0.60687381D-07  0.15155706D-03  0.21170466D-03
 -0.36326172D-03  0.15945797D-04  0.12764102D-06  0.17810105D-05
MO    3     MO 0.0        OCC NO =    1.0000000  ORB. ENERGY =  -10.025981
 -0.16790956D-04 -0.31257923D-04 -0.51418990D-04 -0.69047073D-04 -0.65010422D-04
 -0.53423392D-05  0.22505770D-04  0.59802045D-04 -0.80617334D-07  0.19789357D-03
  0.18517962D-03  0.14342877D-03  0.16438112D-03  0.15382023D-03  0.11913971D-03
  0.18204642D-06  0.17035059D-06  0.13194312D-06 -0.68651453D-04 -0.31756335D-03
 -0.35561042D-03 -0.55600869D-07 -0.49187667D-03  0.22897306D-03 -0.25953521D-03
  0.22283994D-06 -0.39005489D-02  0.58227574D-04 -0.36012900D-03  0.19377797D-06
  0.11935298D-03 -0.87273311D-04 -0.32079670D-04 -0.69058173D-03  0.27981419D-06
 -0.37790879D-07  0.37623856D-03  0.70040300D-03  0.11521563D-02  0.15471526D-02
  0.14567025D-02  0.11970694D-03  0.39105560D-03  0.10391079D-02 -0.14007901D-05
  0.20632010D-02  0.19306478D-02  0.14953613D-02 -0.12661136D-06 -0.11847704D-06
 -0.91765043D-07  0.28025198D-07  0.26224680D-07  0.20312028D-07  0.23622596D-04
 -0.17578386D-02  0.18881543D-06 -0.22178150D-07  0.13298115D-02  0.38556050D-03
  0.42380410D-06  0.81989004D-08  0.76688731D-02  0.95296107D-04  0.59957774D-06
  0.12532681D-07 -0.11912038D-02  0.84891754D-03  0.34228629D-03 -0.46142097D-07
 -0.49166339D-07 -0.84519902D-06 -0.16795493D-04 -0.31266369D-04 -0.51432882D-04
 -0.69065729D-04 -0.65027987D-04 -0.53437826D-05  0.22512006D-04  0.59818615D-04
 -0.80639672D-07  0.19796955D-03  0.18525073D-03  0.14348385D-03 -0.16451151D-03
 -0.15394224D-03 -0.11923422D-03 -0.18131159D-06 -0.16966298D-06 -0.13141053D-06
 -0.68613692D-04 -0.31768123D-03  0.35587138D-03  0.54126322D-07 -0.49271596D-03
  0.22864714D-03  0.25988482D-03 -0.22292768D-06 -0.39041126D-02  0.57740267D-04
  0.36053061D-03 -0.19410606D-06  0.11926099D-03 -0.87249566D-04 -0.32011424D-04
  0.69091722D-03 -0.26505766D-06 -0.24325985D-07 -0.22223902D-04 -0.41371856D-04
 -0.68056314D-04 -0.91388208D-04 -0.86045443D-04 -0.70709268D-05  0.23844430D-04
  0.63359115D-04 -0.85412513D-07  0.12387756D-03  0.11591887D-03  0.89783647D-04
  0.10905899D-04  0.10205235D-04  0.79043488D-05  0.51571850D-07  0.48258545D-07
  0.37378109D-07 -0.20790183D-03 -0.20499189D-03  0.17265213D-05 -0.51308840D-07
  0.74571431D-03  0.28554481D-03 -0.33983212D-03  0.20439518D-06  0.32862538D-02
  0.94724718D-04 -0.29029067D-03  0.14335420D-06 -0.51426792D-04  0.96343911D-04
 -0.44917119D-04  0.10946014D-03  0.13184993D-07 -0.97423941D-07 -0.12370907D-04
 -0.23029591D-04 -0.37883461D-04 -0.50871131D-04 -0.47897087D-04 -0.39360225D-05
  0.13065794D-04  0.34718260D-04 -0.46802640D-07  0.11971916D-03  0.11202764D-03
  0.86769737D-04  0.12683118D-07  0.11868273D-07  0.91924363D-08 -0.32849587D-09
 -0.30739119D-09 -0.23808636D-09 -0.56537192D-04 -0.20628609D-03 -0.17562605D-07
 -0.33018522D-09 -0.58131805D-03 -0.28100459D-03 -0.82038950D-07 -0.15237127D-08
 -0.34669240D-02 -0.24312770D-03 -0.10945355D-06 -0.47862699D-09  0.92538476D-04
 -0.74929625D-04 -0.17608850D-04 -0.25725413D-07  0.41816059D-09 -0.31353620D-08
 -0.22222755D-04 -0.41369722D-04 -0.68052803D-04 -0.91383493D-04 -0.86041003D-04
 -0.70705620D-05  0.23842483D-04  0.63353943D-04 -0.85405540D-07  0.12390213D-03
  0.11594187D-03  0.89801460D-04 -0.10908483D-04 -0.10207653D-04 -0.79062216D-05
 -0.54155787D-07 -0.50676473D-07 -0.39250887D-07 -0.20786735D-03 -0.20502242D-03
 -0.17213194D-05  0.51871836D-07  0.74564754D-03  0.28562517D-03  0.33963353D-03
 -0.20032315D-06  0.32861489D-02  0.94916679D-04  0.29011431D-03 -0.14367539D-06
 -0.51441169D-04  0.96342671D-04 -0.44901501D-04 -0.10946329D-03 -0.12130466D-07
 -0.10131658D-06 -0.12225036D-04 -0.22052221D-04 -0.32510787D-04 -0.24316011D-03
 -0.16288757D-03 -0.10427564D-05 -0.25975364D-03  0.13873834D-06 -0.12220946D-04
 -0.22044844D-04 -0.32499910D-04 -0.24320539D-03 -0.16283861D-03 -0.92050922D-06
  0.25983622D-03 -0.13619390D-06 -0.17881913D-04 -0.32256419D-04 -0.47554464D-04
  0.15275250D-03  0.10081186D-03 -0.43060596D-04 -0.22452415D-04 -0.31135405D-07
 -0.19825510D-05 -0.35762392D-05 -0.52723192D-05 -0.15005279D-03 -0.30564401D-06
 -0.98472748D-04  0.25064253D-07  0.41435626D-09 -0.17874487D-04 -0.32243025D-04
 -0.47534717D-04  0.15267095D-03  0.10077814D-03 -0.43085292D-04  0.22454408D-04
  0.33355480D-07  0.43838267D+00  0.81609004D+00  0.13424604D+01  0.18026991D+01
  0.16973091D+01  0.13947919D+00  0.37007564D+00  0.98336027D+00 -0.13256383D-02
  0.16683785D-02  0.15611912D-02  0.12092029D-02  0.87892394D-07  0.82245626D-07
  0.63702416D-07  0.96868990D-07  0.90645508D-07  0.70208449D-07  0.87769243D-02
 -0.96793181D-05 -0.93743669D-06 -0.10924536D-06 -0.28093267D-02  0.75780763D-03
 -0.29979178D-06  0.16386752D-07 -0.31594787D-02  0.36250783D-03 -0.86447687D-07
  0.45549189D-09  0.74234269D-03  0.52137765D-03 -0.12637203D-02 -0.13505661D-05
 -0.85178962D-07  0.47290833D-05 -0.43884825D-04 -0.80710970D-04 -0.13210657D-03
 -0.17803036D-03 -0.17610994D-03 -0.19601539D-04 -0.61586698D-04 -0.16462405D-03
  0.23513218D-06 -0.11866845D-02 -0.12184232D-02 -0.92081560D-03 -0.19702707D-02
 -0.20229668D-02 -0.15288443D-02 -0.23569639D-05 -0.24200024D-05 -0.18289015D-05
  0.51980141D-03  0.79633422D-03  0.13278907D-02  0.15655433D-05 -0.11029030D-02
  0.20909775D-03  0.46787544D-03  0.63072898D-06  0.64941074D-03 -0.19145648D-03
 -0.10276812D-03 -0.18196546D-06  0.12631596D-03 -0.15700002D-02  0.14436843D-02
 -0.33022815D-02 -0.40332559D-05 -0.74282260D-05 -0.43928809D-04 -0.80791863D-04
 -0.13223897D-03 -0.17820879D-03 -0.17628645D-03 -0.19621185D-04 -0.61546384D-04
 -0.16451629D-03  0.23497827D-06 -0.11871973D-02 -0.12189497D-02 -0.92121346D-03
  0.19715306D-02  0.20242604D-02  0.15298220D-02  0.24549930D-05  0.25206534D-05
  0.19049678D-05  0.51972123D-03  0.79708179D-03 -0.13293644D-02 -0.16267161D-05
 -0.11040248D-02  0.20935809D-03 -0.46826416D-03 -0.67908739D-06  0.64969164D-03
 -0.19152485D-03  0.10288488D-03  0.19139572D-06  0.12674044D-03 -0.15711101D-02
  0.14443697D-02  0.33039066D-02  0.42667456D-05 -0.78399515D-05
MO    4     MO 0.0        OCC NO =    1.0000000  ORB. ENERGY =   -9.928463
  0.94550735D-02  0.17601497D-01  0.28954297D-01  0.38880762D-01  0.36607703D-01
  0.30082986D-02  0.81368305D-02  0.21621082D-01 -0.29146729D-04  0.11980897D-02
  0.11211168D-02  0.86834827D-03  0.19565607D-02  0.18308587D-02  0.14180709D-02
 -0.80367888D-06 -0.75204542D-06 -0.58248825D-06  0.12284135D-03 -0.11774035D-02
 -0.19417926D-02  0.79973412D-06  0.29319171D-03  0.21071112D-03  0.27352139D-03
 -0.96343824D-07 -0.44875685D-02  0.69625501D-04 -0.36736922D-03  0.16435300D-06
  0.46271877D-03 -0.94629078D-03  0.48357201D-03 -0.22597532D-02  0.97483345D-06
  0.11405828D-05  0.43812418D+00  0.81560884D+00  0.13416689D+01  0.18016361D+01
  0.16963083D+01  0.13939695D+00  0.36980648D+00  0.98264508D+00 -0.13246742D-02
  0.97556314D-03  0.91288673D-03  0.70706606D-03 -0.36772674D-06 -0.34410163D-06
 -0.26652001D-06  0.16039254D-07  0.15008790D-07  0.11624888D-07  0.91030298D-02
 -0.80459315D-03  0.90921378D-06  0.13658916D-07 -0.36454502D-02 -0.31939758D-03
  0.27381108D-07 -0.12706430D-07  0.73311267D-02 -0.53717504D-03  0.24059751D-06
  0.62973501D-08  0.18562148D-03  0.10456251D-02 -0.12312466D-02 -0.13211477D-05
  0.14710368D-07 -0.19719007D-05  0.94578688D-02  0.17606701D-01  0.28962857D-01
  0.38892256D-01  0.36618525D-01  0.30091880D-02  0.81393452D-02  0.21627764D-01
 -0.29155737D-04  0.11984664D-02  0.11214692D-02  0.86862126D-03 -0.19571261D-02
 -0.18313879D-02 -0.14184807D-02  0.80994746D-06  0.75791126D-06  0.58703157D-06
  0.12259613D-03 -0.11781773D-02  0.19430020D-02 -0.80763811D-06  0.29287525D-03
  0.21085561D-03 -0.27346703D-03  0.10422164D-06 -0.44884692D-02  0.69296454D-04
  0.36754992D-03 -0.16887243D-06  0.46299271D-03 -0.94679964D-03  0.48380693D-03
  0.22608832D-02 -0.95937610D-06  0.11374116D-05 -0.32779735D-04 -0.61022519D-04
 -0.10038147D-03 -0.13479547D-03 -0.12691501D-03 -0.10429452D-04  0.28983889D-04
  0.77015620D-04 -0.10382244D-06  0.39565620D-03  0.37023672D-03  0.28676265D-03