 x
GAUSSIAN             35 MOL ORBITALS    315 PRIMITIVES       15 NUCLEI
  N    1    (CENTRE  1)   9.81695338  0.42641259  0.00013801  CHARGE =  7.0
  N    2    (CENTRE  2)   9.64557635 -3.87503964  0.00019920  CHARGE =  7.0
  N    3    (CENTRE  3)   5.00206255 -4.25068932 -0.00016131  CHARGE =  7.0
  N    4    (CENTRE  4)   2.76326915 -0.22074752 -0.00000234  CHARGE =  7.0
  N    5    (CENTRE  5)   4.72763449  3.72131246 -0.00003932  CHARGE =  7.0
  C    6    (CENTRE  6)   7.25180293 -0.20436888  0.00005705  CHARGE =  6.0
  C    7    (CENTRE  7)   7.18093728 -2.88777264  0.00017732  CHARGE =  6.0
  C    8    (CENTRE  8)   4.94656722  1.13667254  0.00002383  CHARGE =  6.0
  C    9    (CENTRE  9)  11.13861759 -1.84711118 -0.00016066  CHARGE =  6.0
  C   10    (CENTRE 10)   2.90759206 -2.79602002  0.00000383  CHARGE =  6.0
  H   11    (CENTRE 11)  10.60395340  2.17257221  0.00016536  CHARGE =  1.0
  H   12    (CENTRE 12)  13.18491741 -1.90470577 -0.00028192  CHARGE =  1.0
  H   13    (CENTRE 13)   1.10213038 -3.77826828  0.00000239  CHARGE =  1.0
  H   14    (CENTRE 14)   2.95606843  4.45010021 -0.00010353  CHARGE =  1.0
  H   15    (CENTRE 15)   6.22536871  4.90487005 -0.00001790  CHARGE =  1.0
CENTRE ASSIGNMENTS    1  1  1  1  1  1  1  1  1  1  1  1  1  1  1  1  1  1  1  1
CENTRE ASSIGNMENTS    1  1  1  1  1  1  1  1  1  2  2  2  2  2  2  2  2  2  2  2
CENTRE ASSIGNMENTS    2  2  2  2  2  2  2  2  2  2  2  2  2  2  2  2  2  2  3  3
CENTRE ASSIGNMENTS    3  3  3  3  3  3  3  3  3  3  3  3  3  3  3  3  3  3  3  3
CENTRE ASSIGNMENTS    3  3  3  3  3  3  3  4  4  4  4  4  4  4  4  4  4  4  4  4
CENTRE ASSIGNMENTS    4  4  4  4  4  4  4  4  4  4  4  4  4  4  4  4  5  5  5  5
CENTRE ASSIGNMENTS    5  5  5  5  5  5  5  5  5  5  5  5  5  5  5  5  5  5  5  5
CENTRE ASSIGNMENTS    5  5  5  5  5  6  6  6  6  6  6  6  6  6  6  6  6  6  6  6
CENTRE ASSIGNMENTS    6  6  6  6  6  6  6  6  6  6  6  6  6  6  7  7  7  7  7  7
CENTRE ASSIGNMENTS    7  7  7  7  7  7  7  7  7  7  7  7  7  7  7  7  7  7  7  7
CENTRE ASSIGNMENTS    7  7  7  8  8  8  8  8  8  8  8  8  8  8  8  8  8  8  8  8
CENTRE ASSIGNMENTS    8  8  8  8  8  8  8  8  8  8  8  8  9  9  9  9  9  9  9  9
CENTRE ASSIGNMENTS    9  9  9  9  9  9  9  9  9  9  9  9  9  9  9  9  9  9  9  9
CENTRE ASSIGNMENTS    9 10 10 10 10 10 10 10 10 10 10 10 10 10 10 10 10 10 10 10
CENTRE ASSIGNMENTS   10 10 10 10 10 10 10 10 10 10 11 11 11 11 11 12 12 12 12 12
CENTRE ASSIGNMENTS   13 13 13 13 13 14 14 14 14 14 15 15 15 15 15
TYPE ASSIGNMENTS      1  1  1  1  1  1  1  1  1  1  1  2  2  2  2  3  3  3  3  4
TYPE ASSIGNMENTS      4  4  4  2  3  4  2  3  4  1  1  1  1  1  1  1  1  1  1  1
TYPE ASSIGNMENTS      2  2  2  2  3  3  3  3  4  4  4  4  2  3  4  2  3  4  1  1
TYPE ASSIGNMENTS      1  1  1  1  1  1  1  1  1  2  2  2  2  3  3  3  3  4  4  4
TYPE ASSIGNMENTS      4  2  3  4  2  3  4  1  1  1  1  1  1  1  1  1  1  1  2  2
TYPE ASSIGNMENTS      2  2  3  3  3  3  4  4  4  4  2  3  4  2  3  4  1  1  1  1
TYPE ASSIGNMENTS      1  1  1  1  1  1  1  2  2  2  2  3  3  3  3  4  4  4  4  2
TYPE ASSIGNMENTS      3  4  2  3  4  1  1  1  1  1  1  1  1  1  1  1  2  2  2  2
TYPE ASSIGNMENTS      3  3  3  3  4  4  4  4  2  3  4  2  3  4  1  1  1  1  1  1
TYPE ASSIGNMENTS      1  1  1  1  1  2  2  2  2  3  3  3  3  4  4  4  4  2  3  4
TYPE ASSIGNMENTS      2  3  4  1  1  1  1  1  1  1  1  1  1  1  2  2  2  2  3  3
TYPE ASSIGNMENTS      3  3  4  4  4  4  2  3  4  2  3  4  1  1  1  1  1  1  1  1
TYPE ASSIGNMENTS      1  1  1  2  2  2  2  3  3  3  3  4  4  4  4  2  3  4  2  3
TYPE ASSIGNMENTS      4  1  1  1  1  1  1  1  1  1  1  1  2  2  2  2  3  3  3  3
TYPE ASSIGNMENTS      4  4  4  4  2  3  4  2  3  4  1  1  1  1  1  1  1  1  1  1
TYPE ASSIGNMENTS      1  1  1  1  1  1  1  1  1  1  1  1  1  1  1
EXPONENTS  0.1973080D+05 0.2957896D+04 0.6732213D+03 0.1906825D+03 0.6229544D+02
EXPONENTS  0.2265416D+02 0.8979148D+01 0.3686300D+01 0.8466008D+00 0.3364713D+00
EXPONENTS  0.1364765D+00 0.4920038D+02 0.1134679D+02 0.3427397D+01 0.1178553D+01
EXPONENTS  0.4920038D+02 0.1134679D+02 0.3427397D+01 0.1178553D+01 0.4920038D+02
EXPONENTS  0.1134679D+02 0.3427397D+01 0.1178553D+01 0.4164220D+00 0.4164220D+00
EXPONENTS  0.4164220D+00 0.1426083D+00 0.1426083D+00 0.1426083D+00 0.1973080D+05
EXPONENTS  0.2957896D+04 0.6732213D+03 0.1906825D+03 0.6229544D+02 0.2265416D+02
EXPONENTS  0.8979148D+01 0.3686300D+01 0.8466008D+00 0.3364713D+00 0.1364765D+00
EXPONENTS  0.4920038D+02 0.1134679D+02 0.3427397D+01 0.1178553D+01 0.4920038D+02
EXPONENTS  0.1134679D+02 0.3427397D+01 0.1178553D+01 0.4920038D+02 0.1134679D+02
EXPONENTS  0.3427397D+01 0.1178553D+01 0.4164220D+00 0.4164220D+00 0.4164220D+00
EXPONENTS  0.1426083D+00 0.1426083D+00 0.1426083D+00 0.1973080D+05 0.2957896D+04
EXPONENTS  0.6732213D+03 0.1906825D+03 0.6229544D+02 0.2265416D+02 0.8979148D+01
EXPONENTS  0.3686300D+01 0.8466008D+00 0.3364713D+00 0.1364765D+00 0.4920038D+02
EXPONENTS  0.1134679D+02 0.3427397D+01 0.1178553D+01 0.4920038D+02 0.1134679D+02
EXPONENTS  0.3427397D+01 0.1178553D+01 0.4920038D+02 0.1134679D+02 0.3427397D+01
EXPONENTS  0.1178553D+01 0.4164220D+00 0.4164220D+00 0.4164220D+00 0.1426083D+00
EXPONENTS  0.1426083D+00 0.1426083D+00 0.1973080D+05 0.2957896D+04 0.6732213D+03
EXPONENTS  0.1906825D+03 0.6229544D+02 0.2265416D+02 0.8979148D+01 0.3686300D+01
EXPONENTS  0.8466008D+00 0.3364713D+00 0.1364765D+00 0.4920038D+02 0.1134679D+02
EXPONENTS  0.3427397D+01 0.1178553D+01 0.4920038D+02 0.1134679D+02 0.3427397D+01
EXPONENTS  0.1178553D+01 0.4920038D+02 0.1134679D+02 0.3427397D+01 0.1178553D+01
EXPONENTS  0.4164220D+00 0.4164220D+00 0.4164220D+00 0.1426083D+00 0.1426083D+00
EXPONENTS  0.1426083D+00 0.1973080D+05 0.2957896D+04 0.6732213D+03 0.1906825D+03
EXPONENTS  0.6229544D+02 0.2265416D+02 0.8979148D+01 0.3686300D+01 0.8466008D+00
EXPONENTS  0.3364713D+00 0.1364765D+00 0.4920038D+02 0.1134679D+02 0.3427397D+01
EXPONENTS  0.1178553D+01 0.4920038D+02 0.1134679D+02 0.3427397D+01 0.1178553D+01
EXPONENTS  0.4920038D+02 0.1134679D+02 0.3427397D+01 0.1178553D+01 0.4164220D+00
EXPONENTS  0.4164220D+00 0.4164220D+00 0.1426083D+00 0.1426083D+00 0.1426083D+00
EXPONENTS  0.1357535D+05 0.2035233D+04 0.4632256D+03 0.1312002D+03 0.4285302D+02
EXPONENTS  0.1558419D+02 0.6206714D+01 0.2576490D+01 0.5769634D+00 0.2297283D+00
EXPONENTS  0.9516444D-01 0.3469723D+02 0.7958262D+01 0.2378083D+01 0.8143321D+00
EXPONENTS  0.3469723D+02 0.7958262D+01 0.2378083D+01 0.8143321D+00 0.3469723D+02
EXPONENTS  0.7958262D+01 0.2378083D+01 0.8143321D+00 0.2888755D+00 0.2888755D+00
EXPONENTS  0.2888755D+00 0.1005682D+00 0.1005682D+00 0.1005682D+00 0.1357535D+05
EXPONENTS  0.2035233D+04 0.4632256D+03 0.1312002D+03 0.4285302D+02 0.1558419D+02
EXPONENTS  0.6206714D+01 0.2576490D+01 0.5769634D+00 0.2297283D+00 0.9516444D-01
EXPONENTS  0.3469723D+02 0.7958262D+01 0.2378083D+01 0.8143321D+00 0.3469723D+02
EXPONENTS  0.7958262D+01 0.2378083D+01 0.8143321D+00 0.3469723D+02 0.7958262D+01
EXPONENTS  0.2378083D+01 0.8143321D+00 0.2888755D+00 0.2888755D+00 0.2888755D+00
EXPONENTS  0.1005682D+00 0.1005682D+00 0.1005682D+00 0.1357535D+05 0.2035233D+04
EXPONENTS  0.4632256D+03 0.1312002D+03 0.4285302D+02 0.1558419D+02 0.6206714D+01
EXPONENTS  0.2576490D+01 0.5769634D+00 0.2297283D+00 0.9516444D-01 0.3469723D+02
EXPONENTS  0.7958262D+01 0.2378083D+01 0.8143321D+00 0.3469723D+02 0.7958262D+01
EXPONENTS  0.2378083D+01 0.8143321D+00 0.3469723D+02 0.7958262D+01 0.2378083D+01
EXPONENTS  0.8143321D+00 0.2888755D+00 0.2888755D+00 0.2888755D+00 0.1005682D+00
EXPONENTS  0.1005682D+00 0.1005682D+00 0.1357535D+05 0.2035233D+04 0.4632256D+03
EXPONENTS  0.1312002D+03 0.4285302D+02 0.1558419D+02 0.6206714D+01 0.2576490D+01
EXPONENTS  0.5769634D+00 0.2297283D+00 0.9516444D-01 0.3469723D+02 0.7958262D+01
EXPONENTS  0.2378083D+01 0.8143321D+00 0.3469723D+02 0.7958262D+01 0.2378083D+01
EXPONENTS  0.8143321D+00 0.3469723D+02 0.7958262D+01 0.2378083D+01 0.8143321D+00
EXPONENTS  0.2888755D+00 0.2888755D+00 0.2888755D+00 0.1005682D+00 0.1005682D+00
EXPONENTS  0.1005682D+00 0.1357535D+05 0.2035233D+04 0.4632256D+03 0.1312002D+03
EXPONENTS  0.4285302D+02 0.1558419D+02 0.6206714D+01 0.2576490D+01 0.5769634D+00
EXPONENTS  0.2297283D+00 0.9516444D-01 0.3469723D+02 0.7958262D+01 0.2378083D+01
EXPONENTS  0.8143321D+00 0.3469723D+02 0.7958262D+01 0.2378083D+01 0.8143321D+00
EXPONENTS  0.3469723D+02 0.7958262D+01 0.2378083D+01 0.8143321D+00 0.2888755D+00
EXPONENTS  0.2888755D+00 0.2888755D+00 0.1005682D+00 0.1005682D+00 0.1005682D+00
EXPONENTS  0.3406134D+02 0.5123575D+01 0.1164663D+01 0.3272304D+00 0.1030724D+00
EXPONENTS  0.3406134D+02 0.5123575D+01 0.1164663D+01 0.3272304D+00 0.1030724D+00
EXPONENTS  0.3406134D+02 0.5123575D+01 0.1164663D+01 0.3272304D+00 0.1030724D+00
EXPONENTS  0.3406134D+02 0.5123575D+01 0.1164663D+01 0.3272304D+00 0.1030724D+00
EXPONENTS  0.3406134D+02 0.5123575D+01 0.1164663D+01 0.3272304D+00 0.1030724D+00
MO    1     MO 0.0        OCC NO =    2.0000000  ORB. ENERGY =  -14.077973
  0.31200380D+00  0.58247425D+00  0.99534250D+00  0.15535791D+01  0.21066674D+01
  0.22212665D+01  0.14946376D+01  0.45926123D+00  0.25246226D-01 -0.11228469D-01
  0.76617584D-02 -0.69790555D-03 -0.76402265D-03 -0.67233620D-03 -0.41376889D-03
 -0.73312069D-03 -0.80257395D-03 -0.70626115D-03 -0.43464697D-03 -0.62159686D-06
 -0.68048475D-06 -0.59882324D-06 -0.36852758D-06  0.58969054D-03  0.53979967D-03
  0.12853561D-06 -0.87210794D-03 -0.75050693D-03 -0.82658885D-07 -0.27901644D-04
 -0.52089075D-04 -0.89010751D-04 -0.13893232D-03 -0.18839349D-03 -0.19864177D-03
  0.24824476D-05  0.76278819D-06 -0.21403289D-03  0.41258347D-03 -0.95611672D-03
 -0.17970876D-04 -0.19673373D-04 -0.17312472D-04 -0.10654435D-04  0.65271164D-04
  0.71454723D-04  0.62879807D-04  0.38697467D-04  0.23133397D-07  0.25324973D-07
  0.22285853D-07  0.13715151D-07 -0.51818384D-04 -0.17162899D-03 -0.14697403D-07
  0.24688091D-03  0.49887063D-04 -0.12226294D-07  0.15544845D-05  0.29020390D-05
  0.49590565D-05  0.77403370D-05  0.10495968D-04  0.11066930D-04 -0.67759902D-05
 -0.20820763D-05  0.66447597D-04 -0.13267552D-03  0.33534182D-03  0.20384103D-04
  0.22315221D-04  0.19637285D-04  0.12085171D-04  0.46756595D-04  0.51186150D-04
  0.45043561D-04  0.27720692D-04  0.35616495D-07  0.38990676D-07  0.34311604D-07
  0.21116035D-07 -0.10878370D-03 -0.81894524D-04 -0.46432640D-07  0.22316630D-04
  0.78916663D-06  0.48470000D-07  0.47591752D-05  0.88848180D-05  0.15182537D-04
  0.23697644D-04  0.32134221D-04  0.33882268D-04  0.13076721D-05  0.40181183D-06
  0.74133025D-04 -0.13036674D-03  0.24297635D-03  0.10396607D-03  0.11381545D-03
  0.10015704D-03  0.61638606D-04 -0.74985577D-04 -0.82089445D-04 -0.72238310D-04
 -0.44456874D-04 -0.14577460D-07 -0.15958477D-07 -0.14043382D-07 -0.86425730D-08
 -0.17448014D-03  0.22412820D-04  0.12672890D-07  0.52858938D-04 -0.56467029D-04
 -0.15006146D-07 -0.40771512D-04 -0.76115598D-04 -0.13006771D-03 -0.20301601D-03
 -0.27529157D-03 -0.29026696D-03 -0.50652798D-04 -0.15564218D-04 -0.33940650D-03
  0.66773865D-03 -0.13621877D-02 -0.56165727D-04 -0.61486669D-04 -0.54107968D-04
 -0.33299105D-04  0.10173304D-03  0.11137087D-03  0.98005821D-04  0.60314706D-04
 -0.28035509D-07 -0.30691494D-07 -0.27008364D-07 -0.16621478D-07  0.86583705D-04
 -0.18451742D-03  0.30975873D-07 -0.35597041D-04  0.27074682D-03 -0.35075854D-07
  0.12326822D-04  0.23006710D-04  0.39266304D-04  0.61023757D-04  0.81737009D-04
  0.83961612D-04 -0.21995311D-03 -0.65178478D-04  0.50356875D-03 -0.76030228D-03
  0.11018312D-04  0.19933611D-03  0.21276438D-03  0.18632593D-03  0.11766250D-03
  0.10329245D-03  0.11025075D-03  0.96550808D-04  0.60970632D-04 -0.16370997D-07
 -0.17473829D-07 -0.15302502D-07 -0.96633394D-08  0.51412537D-03  0.18282460D-04
  0.38701795D-07 -0.24682868D-02  0.12142184D-03 -0.82672899D-07 -0.99715655D-06
 -0.18610872D-05 -0.31763784D-05 -0.49364092D-05 -0.66119712D-05 -0.67919265D-05
  0.18479833D-04  0.54761099D-05  0.29994293D-04 -0.44427156D-04  0.72275583D-03
  0.41457882D-04  0.44250691D-04  0.38752028D-04  0.24471423D-04 -0.91057992D-05
 -0.97192111D-05 -0.85114861D-05 -0.53748974D-05  0.67545802D-08  0.72096023D-08
  0.63137254D-08  0.39870389D-08 -0.22956418D-03 -0.13547572D-03 -0.12593887D-07
  0.93041695D-03  0.25392751D-04  0.10642836D-07  0.32478304D-05  0.60617318D-05
  0.10345756D-04  0.16078338D-04  0.21535797D-04  0.22121928D-04 -0.61733398D-04
 -0.18293394D-04  0.11215357D-03  0.57786463D-04 -0.24436059D-02  0.23401169D-03
  0.24977588D-03  0.21873832D-03  0.13813052D-03  0.48398558D-04  0.51658925D-04
  0.45239703D-04  0.28568308D-04  0.11988257D-07  0.12795846D-07  0.11205813D-07
  0.70763314D-08 -0.11321336D-03 -0.21640755D-03 -0.13707283D-07 -0.38534704D-03
  0.11112684D-02  0.25913411D-07  0.61843774D-05  0.11542486D-04  0.19699939D-04
  0.30615671D-04  0.41007528D-04  0.42123613D-04 -0.10121889D-03 -0.29994087D-04
  0.29647609D-03 -0.38430428D-03 -0.82746730D-03 -0.23615377D-03 -0.25206226D-03
 -0.22074059D-03 -0.13939493D-03  0.48037154D-03  0.51273175D-03  0.44901887D-03
  0.28354982D-03  0.60120153D-07  0.64170146D-07  0.56196259D-07  0.35487237D-07
 -0.47971021D-04  0.42774887D-04  0.10963592D-07  0.23688252D-03 -0.14337923D-03
 -0.57569486D-07  0.35257296D-05  0.65804012D-05  0.11230986D-04  0.17454073D-04
  0.23378498D-04  0.24014781D-04 -0.66642539D-04 -0.19748115D-04  0.15357538D-03
 -0.27029241D-03  0.44138449D-03  0.26632306D-04  0.28426391D-04  0.24894081D-04
  0.15720302D-04  0.37980174D-04  0.40538707D-04  0.35501301D-04  0.22418629D-04
 -0.52054290D-08 -0.55560925D-08 -0.48656834D-08 -0.30726184D-08 -0.22047623D-04
 -0.16984954D-04  0.15552020D-08  0.15200404D-03  0.87241523D-04  0.84862167D-08
  0.51090993D-04  0.92208843D-04  0.13613107D-03  0.18002486D-03 -0.11510563D-03
  0.37198864D-06  0.67136378D-06  0.99115731D-06 -0.62086222D-06 -0.59406208D-04
  0.33739050D-06  0.60892117D-06  0.89897115D-06  0.21169047D-04  0.75633344D-04
 -0.81433772D-05 -0.14697138D-04 -0.21697888D-04  0.69221108D-04 -0.10980563D-03
 -0.49873574D-05 -0.90011649D-05 -0.13288728D-04  0.36579507D-04  0.40141782D-04
MO    2     MO 0.0        OCC NO =    2.0000000  ORB. ENERGY =  -14.031615
  0.31594187D-04  0.58982616D-04  0.10079056D-03  0.15731881D-03  0.21332575D-03
  0.22493030D-03  0.30094953D-03  0.92473555D-04 -0.34745168D-03  0.67972370D-03
 -0.16677630D-02  0.16284906D-03  0.17827680D-03  0.15688271D-03  0.96548702D-04
 -0.12447607D-03 -0.13626849D-03 -0.11991561D-03 -0.73798418D-04  0.10690142D-07
  0.11702888D-07  0.10298484D-07  0.63378893D-08 -0.26499857D-03  0.12013296D-03
 -0.11621091D-07  0.35507760D-03 -0.14997983D-03  0.19452303D-07  0.49469161D-05
  0.92353081D-05  0.15781461D-04  0.24632473D-04  0.33401858D-04  0.35218863D-04
  0.97642402D-05  0.30002838D-05  0.27538815D-04 -0.67545834D-04  0.19373273D-03
 -0.13301868D-04 -0.14562040D-04 -0.12814524D-04 -0.78863093D-05 -0.18002159D-04
 -0.19707620D-04 -0.17342609D-04 -0.10672982D-04  0.15179019D-07  0.16617026D-07
  0.14622902D-07  0.89992207D-08  0.15963646D-04  0.14317007D-04 -0.14483835D-07
  0.22152693D-04  0.64565619D-04  0.87615024D-10  0.13587430D-04  0.25366128D-04
  0.43346096D-04  0.67656699D-04  0.91743101D-04  0.96733770D-04  0.25915412D-04
  0.79630967D-05  0.84575404D-04 -0.18054366D-03  0.36733212D-03  0.73642153D-05
  0.80618750D-05  0.70944105D-05  0.43660395D-05  0.14275975D-04  0.15628430D-04
  0.13752942D-04  0.84638304D-05  0.21561172D-07  0.23603801D-07  0.20771230D-07
  0.12783022D-07  0.14808421D-04 -0.29765400D-04 -0.23091088D-07  0.33167336D-04
  0.11286206D-03  0.26815775D-07 -0.62134013D-04 -0.11599686D-03 -0.19821753D-03
 -0.30938758D-03 -0.41953238D-03 -0.44235424D-03 -0.16281259D-03 -0.50027851D-04
 -0.25877426D-03  0.62623675D-03 -0.19623737D-02 -0.17147207D-03 -0.18771673D-03
 -0.16518980D-03 -0.10166105D-03  0.13363710D-03  0.14629741D-03  0.12874100D-03
  0.79229741D-04 -0.19918989D-07 -0.21806043D-07 -0.19189211D-07 -0.11809417D-07
  0.19685705D-03 -0.14858562D-03  0.21192761D-07 -0.54475784D-03 -0.64664480D-04
 -0.25502218D-07  0.31199173D+00  0.58245172D+00  0.99530400D+00  0.15535190D+01
  0.21065859D+01  0.22211806D+01  0.14946723D+01  0.45927188D+00  0.25097457D-01
 -0.10951536D-01  0.75516539D-02  0.36032443D-03  0.39446029D-03  0.34712313D-03
  0.21362639D-03 -0.95187393D-03 -0.10420511D-02 -0.91699987D-03 -0.56433972D-03
  0.42012828D-07  0.45992975D-07  0.40473593D-07  0.24908244D-07 -0.14564264D-03
  0.81849859D-03 -0.31109675D-07  0.27673973D-03 -0.11037843D-02  0.38043097D-07
 -0.18062481D-05 -0.33711709D-05 -0.57536877D-05 -0.89418052D-05 -0.11976916D-04
 -0.12302887D-04  0.32987747D-04  0.97752250D-05 -0.81523842D-05  0.16960374D-03
 -0.11757029D-02  0.10556042D-03  0.11267149D-03  0.98670748D-04  0.62309347D-04
  0.17202967D-03  0.18361844D-03  0.16080171D-03  0.10154428D-03 -0.61714643D-08
 -0.65872048D-08 -0.57686680D-08 -0.36428419D-08 -0.22743956D-03 -0.20128889D-03
  0.47219992D-08  0.12898057D-02  0.81512811D-03 -0.64410117D-08 -0.13307133D-05
 -0.24836355D-05 -0.42389020D-05 -0.65876769D-05 -0.88237277D-05 -0.90638795D-05
  0.24685248D-04  0.73149540D-05 -0.22323975D-04  0.18334851D-05  0.87177362D-03
  0.23291721D-04  0.24860767D-04  0.21771527D-04  0.13748448D-04 -0.10018406D-03
 -0.10693295D-03 -0.93645288D-04 -0.59135832D-04 -0.13708686D-07 -0.14632171D-07
 -0.12813954D-07 -0.80918520D-08  0.23760761D-06  0.96259634D-05  0.19827047D-07
  0.48559983D-04  0.14640740D-03 -0.29604887D-07  0.38075240D-05  0.71063406D-05
  0.12128624D-04  0.18849093D-04  0.25247027D-04  0.25934166D-04 -0.48609263D-04
 -0.14404333D-04  0.22130677D-03 -0.19829116D-03 -0.16604131D-04 -0.23692028D-04
 -0.25288041D-04 -0.22145707D-04 -0.13984738D-04  0.29547087D-03  0.31537526D-03
  0.27618621D-03  0.17440815D-03 -0.28172957D-08 -0.30070827D-08 -0.26334177D-08
 -0.16629704D-08 -0.83806357D-04  0.44612778D-03 -0.17062514D-07 -0.32523642D-03
 -0.25672794D-02  0.48435409D-07 -0.11971828D-05 -0.22344151D-05 -0.38135493D-05
 -0.59266363D-05 -0.79383105D-05 -0.81543643D-05  0.22657789D-04  0.67141592D-05
 -0.65043209D-04  0.12318200D-03 -0.50433539D-03 -0.99462868D-05 -0.10616318D-04
 -0.92971171D-05 -0.58710136D-05 -0.44194172D-04 -0.47171311D-04 -0.41309727D-04
 -0.26086578D-04  0.10789969D-07  0.11516835D-07  0.10085734D-07  0.63690154D-08
  0.12284249D-04  0.78429181D-04 -0.10479983D-07  0.21833389D-03 -0.38323100D-04
 -0.24330345D-07 -0.41029209D-05 -0.76576677D-05 -0.13069592D-04 -0.20311451D-04
 -0.27205753D-04 -0.27946201D-04  0.76907751D-04  0.22789994D-04 -0.13597553D-03
  0.24652726D-03 -0.53926789D-03 -0.56118959D-04 -0.59899411D-04 -0.52456212D-04
 -0.33125444D-04 -0.13084272D-03 -0.13965693D-03 -0.12230293D-03 -0.77232778D-04
 -0.62991075D-08 -0.67234467D-08 -0.58879802D-08 -0.37181861D-08  0.50901949D-04
  0.47188230D-04  0.54326605D-08 -0.11995359D-03 -0.16516021D-03 -0.19371448D-08
 -0.27222140D-04 -0.49130421D-04 -0.72532920D-04  0.17030923D-03  0.39675502D-04
  0.47887520D-05  0.86427225D-05  0.12759547D-04 -0.60852870D-04 -0.11501765D-03
  0.14749734D-05  0.26620268D-05  0.39300412D-05  0.13259656D-04 -0.87798182D-04
  0.80866503D-04  0.14594758D-03  0.21546740D-03 -0.10039723D-04 -0.14018522D-03
  0.91646177D-04  0.16540269D-03  0.24418965D-03 -0.12201668D-03 -0.24302380D-03
MO    3     MO 0.0        OCC NO =    2.0000000  ORB. ENERGY =  -13.998066
  0.19703010D-04  0.36783193D-04  0.62855783D-04  0.98108369D-04  0.13303584D-03
  0.14027277D-03  0.22640577D-03  0.69568296D-04 -0.18747988D-03  0.44016326D-03
 -0.15491283D-02  0.53262659D-05  0.58308576D-05  0.51311261D-05  0.31577957D-05
 -0.48453008D-04 -0.53043275D-04 -0.46677823D-04 -0.28726448D-04  0.66676512D-07
  0.72993209D-07  0.64233667D-07  0.39530659D-07 -0.10415941D-03  0.21477730D-03
 -0.60635526D-07  0.38137879D-03  0.15559641D-03  0.52426800D-07  0.31198038D+00
  0.58243052D+00  0.99526778D+00  0.15534624D+01  0.21065092D+01  0.22210998D+01
  0.14948369D+01  0.45932248D+00  0.25288356D-01 -0.11497768D-01  0.77625584D-02
 -0.16580775D-02 -0.18151579D-02 -0.15973301D-02 -0.98302830D-03  0.66970602D-02
  0.73315160D-02  0.64516982D-02  0.39705017D-02 -0.49445271D-06 -0.54129542D-06
 -0.47633732D-06 -0.29314733D-06  0.65081430D-03 -0.18163560D-02  0.11355270D-06
 -0.71702749D-03  0.10917918D-02 -0.32973788D-07 -0.20224247D-03 -0.37756280D-03
 -0.64518612D-03 -0.10070379D-02 -0.13655526D-02 -0.14398364D-02 -0.84439219D-03
 -0.25945861D-03 -0.30781253D-03  0.71173003D-03 -0.17263854D-02  0.33130399D-04
  0.36269056D-04  0.31916592D-04  0.19642097D-04 -0.13563135D-03 -0.14848058D-03
 -0.13066219D-03 -0.80412074D-04 -0.84872898D-07 -0.92913456D-07 -0.81763387D-07
 -0.50318793D-07  0.10614311D-03  0.18342431D-03  0.99815118D-07 -0.32684464D-03
 -0.21515457D-03 -0.12479905D-06  0.24188713D-03  0.45157471D-03  0.77165901D-03
  0.12044430D-02  0.16332357D-02  0.17220809D-02  0.11265001D-02  0.34614264D-03
  0.90839113D-04 -0.12587737D-03  0.96015743D-04  0.68145476D-04  0.74601338D-04
  0.65648812D-04  0.40401568D-04  0.99269393D-05  0.10867382D-04  0.95632433D-05
  0.58854077D-05  0.72680867D-08  0.79566396D-08  0.70018039D-08  0.43090475D-08
 -0.71673096D-04  0.56726953D-05 -0.51672231D-08  0.55605291D-04 -0.36755968D-04
  0.35321217D-08 -0.39980992D-05 -0.74639790D-05 -0.12754582D-04 -0.19907973D-04
 -0.26995393D-04 -0.28463896D-04 -0.33992302D-04 -0.10444904D-04  0.41004836D-04
 -0.11696663D-03  0.30966253D-03 -0.46838985D-04 -0.51276345D-04 -0.45122932D-04
 -0.27769538D-04 -0.15604929D-04 -0.17083285D-04 -0.15033207D-04 -0.92517305D-05
  0.16907461D-07  0.18509214D-07  0.16288018D-07  0.10023966D-07  0.42444437D-04
  0.36907126D-04 -0.17669705D-07  0.99548036D-04 -0.71919119D-04  0.22595462D-07
 -0.50076235D-05 -0.93461994D-05 -0.15951464D-04 -0.24790168D-04 -0.33204678D-04
 -0.34108396D-04  0.92813062D-04  0.27503198D-04 -0.74019195D-04  0.16366112D-03
  0.14177846D-02  0.11412785D-03  0.12181606D-03  0.10667900D-03  0.67366459D-04
 -0.80248353D-05 -0.85654280D-05 -0.75010740D-05 -0.47368347D-05 -0.57966316D-08
 -0.61871215D-08 -0.54182997D-08 -0.34215887D-08 -0.22290384D-03  0.25489835D-03
 -0.40884595D-08  0.13401230D-02 -0.48240153D-03  0.55804275D-07  0.82970415D-05
  0.15485550D-04  0.26429695D-04  0.41074385D-04  0.55016235D-04  0.56513590D-04
 -0.14595576D-03 -0.43250918D-04  0.24029060D-03 -0.74217333D-04 -0.24360546D-02
  0.34238686D-03  0.36545174D-03  0.32004011D-03  0.20210134D-03 -0.24820668D-03
 -0.26492712D-03 -0.23200684D-03 -0.14650943D-03  0.12653274D-07  0.13505661D-07
  0.11827426D-07  0.74688718D-08  0.53369129D-03  0.26322653D-04 -0.48786634D-08
 -0.22240112D-02 -0.29414059D-03 -0.58797140D-07 -0.31295815D-05 -0.58410328D-05
 -0.99690817D-05 -0.15492948D-04 -0.20751709D-04 -0.21316500D-04  0.58442338D-04
  0.17318157D-04 -0.89063801D-04  0.88655827D-04  0.99617659D-03 -0.80100151D-04
 -0.85496095D-04 -0.74872211D-04 -0.47280868D-04  0.34057733D-04  0.36352031D-04
  0.31834868D-04  0.20103323D-04 -0.46679722D-08 -0.49824300D-08 -0.43633051D-08
 -0.27553728D-08 -0.49513337D-04  0.51691157D-04  0.62923999D-08  0.57726387D-04
 -0.26313860D-03 -0.27367632D-07  0.47833499D-05  0.89276166D-05  0.15237055D-04
  0.23679905D-04  0.31717559D-04  0.32580803D-04 -0.46419148D-04 -0.13755338D-04
  0.32371183D-03 -0.19554305D-03 -0.89574669D-03 -0.24062592D-03 -0.25683568D-03
 -0.22492086D-03 -0.14203472D-03 -0.59818105D-03 -0.63847750D-03 -0.55913924D-03
 -0.35308946D-03  0.86534213D-07  0.92363587D-07  0.80886337D-07  0.51078714D-07
 -0.33853594D-03 -0.23077983D-04  0.42463317D-07  0.21851889D-03  0.17088619D-03
 -0.58400845D-07 -0.40676977D-05 -0.75919275D-05 -0.12957391D-04 -0.20137079D-04
 -0.26972194D-04 -0.27706286D-04  0.76299665D-04  0.22609801D-04 -0.13640411D-03
  0.23214043D-03 -0.73490663D-03 -0.11284066D-03 -0.12044217D-03 -0.10547583D-03
 -0.66606671D-04  0.35709294D-05  0.38114849D-05  0.33378636D-05  0.21078192D-05
  0.80186894D-09  0.85588682D-09  0.74953293D-09  0.47332070D-09  0.13106895D-04
  0.27115228D-04  0.53249258D-08 -0.32557352D-03 -0.98797001D-04 -0.84123300D-08
 -0.16896649D-04 -0.30495012D-04 -0.45020829D-04 -0.52537002D-04 -0.14809000D-03
  0.45906233D-05  0.82851407D-05  0.12231637D-04  0.92172175D-04 -0.20504295D-04
  0.41462244D-05  0.74830911D-05  0.11047543D-04 -0.38922649D-04 -0.19048852D-03
 -0.11050494D-06 -0.19943893D-06 -0.29443851D-06  0.54145912D-04  0.33304521D-04
  0.48039987D-05  0.86702398D-05  0.12800172D-04 -0.90115493D-04 -0.41688847D-05
MO    4     MO 0.0        OCC NO =    2.0000000  ORB. ENERGY =  -13.996068
 -0.29790315D-05 -0.55615000D-05 -0.95035915D-05 -0.14833669D-04 -0.20114590D-04
 -0.21208789D-04 -0.49540285D-04 -0.15222374D-04  0.11444456D-03 -0.15225910D-03
 -0.26395059D-03 -0.12970975D-03 -0.14199799D-03 -0.12495753D-03 -0.76901319D-04
 -0.28956457D-04 -0.31699690D-04 -0.27895572D-04 -0.17167482D-04 -0.21362843D-07
 -0.23386684D-07 -0.20580167D-07 -0.12665439D-07  0.22724632D-03  0.56270506D-04
  0.22715323D-07 -0.75254683D-06  0.24768230D-03 -0.14843167D-08 -0.23973616D-03
 -0.44755909D-03 -0.76479705D-03 -0.11937325D-02 -0.16187121D-02 -0.17067673D-02
 -0.11857986D-02 -0.36436346D-03  0.69060076D-04 -0.15505141D-03  0.55957014D-03
 -0.16789492D-04 -0.18380069D-04 -0.16174370D-04 -0.99540251D-05  0.36090180D-04
  0.39509236D-04  0.34767934D-04  0.21396869D-04 -0.15837827D-07 -0.17338247D-07
 -0.15257573D-07 -0.93898097D-08  0.32061168D-04 -0.41214033D-04  0.11361809D-07
 -0.30128941D-04  0.89039444D-04 -0.34196080D-08 -0.94554728D-05 -0.17652251D-04
 -0.30164485D-04 -0.47082198D-04 -0.63843890D-04 -0.67316889D-04 -0.23646513D-04
 -0.72659263D-05 -0.23844827D-04  0.25856236D-03 -0.89547791D-03  0.38080437D-04
  0.41688043D-04  0.36685274D-04  0.22576838D-04  0.35333732D-03  0.38681125D-03
  0.34039201D-03  0.20948392D-03 -0.72888375D-07 -0.79793563D-07 -0.70217944D-07
 -0.43213501D-07 -0.65755609D-05 -0.31993593D-03  0.77048108D-07 -0.25324327D-03
  0.57531502D-04 -0.10318345D-06  0.31198145D+00  0.58243251D+00  0.99527119D+00
  0.15534678D+01  0.21065164D+01  0.22211074D+01  0.14948080D+01  0.45931358D+00
  0.25224279D-01 -0.11280423D-01  0.73895182D-02  0.57055885D-02  0.62461158D-02
  0.54965513D-02  0.33826856D-02 -0.23889242D-02 -0.26152425D-02 -0.23014006D-02
 -0.14163271D-02  0.70085884D-07  0.76725573D-07  0.67518129D-07  0.41551982D-07
 -0.16133261D-02  0.46972638D-03 -0.30501972D-07  0.11475942D-02 -0.16544192D-04
  0.24780656D-07  0.53363465D-04  0.99623288D-04  0.17023807D-03  0.26571588D-03
  0.36031315D-03  0.37991357D-03  0.40670860D-03  0.12497042D-03 -0.27369042D-03
  0.60786505D-03 -0.15656001D-02 -0.18435636D-03 -0.20182163D-03 -0.17760205D-03
 -0.10929979D-03  0.56853804D-04  0.62239933D-04  0.54770836D-04  0.33707048D-04
 -0.88001181D-08 -0.96338102D-08 -0.84777058D-08 -0.52173466D-08  0.20628220D-03
 -0.54383191D-04  0.77364339D-08 -0.28816734D-03  0.26675516D-03 -0.83725550D-08
 -0.11948565D-07 -0.22300732D-07 -0.38061389D-07 -0.59151198D-07 -0.79228849D-07
 -0.81385188D-07 -0.27841267D-05 -0.82501737D-06  0.10162610D-03 -0.12619450D-03
  0.10289687D-02 -0.14364937D-03 -0.15332630D-03 -0.13427373D-03 -0.84792185D-04
 -0.24368127D-03 -0.26009685D-03 -0.22777679D-03 -0.14383820D-03 -0.94387866D-08
 -0.10074630D-07 -0.88227402D-08 -0.55714505D-08  0.42458757D-03  0.21794077D-03
  0.14285403D-07  0.25673776D-03 -0.12756850D-02  0.46930286D-07  0.70953643D-05
  0.13242747D-04  0.22601829D-04  0.35125499D-04  0.47048123D-04  0.48328613D-04
 -0.13505997D-03 -0.40022182D-04  0.25975212D-03 -0.21746169D-03 -0.13826933D-02
 -0.16711577D-03 -0.17837352D-03 -0.15620854D-03 -0.98643744D-04  0.17789370D-03
  0.18987751D-03  0.16628302D-03  0.10500565D-03 -0.19694291D-08 -0.21020996D-08
 -0.18408893D-08 -0.11624986D-08  0.66136080D-04 -0.13132865D-03 -0.15966170D-07
 -0.75876310D-03 -0.57745048D-03  0.15427536D-07  0.25226093D-05  0.47081834D-05
  0.80356106D-05  0.12488141D-04  0.16726982D-04  0.17182234D-04 -0.19404049D-04
 -0.57499817D-05  0.12757064D-03  0.17883951D-03 -0.69516872D-03 -0.45431243D-03
 -0.48491718D-03 -0.42466058D-03 -0.26816786D-03 -0.22584686D-03 -0.24106102D-03
 -0.21110639D-03 -0.13331105D-03 -0.77375837D-08 -0.82588258D-08 -0.72325707D-08
 -0.45672782D-08 -0.13979592D-03 -0.30278900D-03  0.25632595D-08  0.12723972D-02
  0.12693944D-02 -0.19486452D-07  0.10485873D-05  0.19570773D-05  0.33402078D-05
  0.51910164D-05  0.69529996D-05  0.71422366D-05 -0.19623262D-04 -0.58149410D-05
  0.19931413D-04  0.22642038D-04  0.21539450D-03  0.14926324D-04  0.15931835D-04
  0.13952119D-04  0.88105893D-05 -0.50342529D-04 -0.53733852D-04 -0.47056796D-04
 -0.29715780D-04 -0.17908201D-07 -0.19114586D-07 -0.16739376D-07 -0.10570707D-07
 -0.59871298D-04  0.91236179D-04  0.17527594D-07 -0.86310853D-04  0.81405975D-05
  0.17589185D-07  0.58620803D-05  0.10940953D-04  0.18673282D-04  0.29020144D-04
  0.38870432D-04  0.39928353D-04 -0.85865255D-04 -0.25444362D-04  0.33184911D-03
 -0.25372037D-03 -0.99605823D-03 -0.18239023D-05 -0.19467694D-05 -0.17048607D-05
 -0.10765983D-05  0.51958540D-03  0.55458726D-03  0.48567334D-03  0.30669666D-03
 -0.20580829D-07 -0.21967256D-07 -0.19237569D-07 -0.12148285D-07 -0.14534576D-04
  0.20189857D-03  0.16374062D-07 -0.20343220D-03 -0.31346873D-03  0.63126870D-08
  0.13217365D-05  0.23854653D-05  0.35217440D-05 -0.60692020D-04 -0.33826984D-04
  0.15698057D-06  0.28331797D-06  0.41827201D-06  0.36019706D-04  0.35183022D-04
 -0.68305184D-05 -0.12327695D-04 -0.18199798D-04 -0.17384546D-04 -0.12760950D-03
  0.20679559D-04  0.37322395D-04  0.55100328D-04 -0.34866198D-04  0.29472050D-05
 -0.35936714D-04 -0.64858453D-04 -0.95752752D-04  0.13780397D-03 -0.72911365D-04
MO    5     MO 0.0        OCC NO =    2.0000000  ORB. ENERGY =  -13.989225
 -0.52432637D-06 -0.97885541D-06 -0.16726858D-05 -0.26108095D-05 -0.35402814D-05
 -0.37328667D-05 -0.19486996D-04 -0.59878205D-05  0.92668013D-04 -0.20475756D-03
  0.26409056D-04 -0.77719926D-04 -0.85082837D-04 -0.74872480D-04 -0.46077994D-04
  0.13243021D-04  0.14497618D-04  0.12757833D-04  0.78514206D-05  0.72769927D-08