 xx
GAUSSIAN              9 MOL ORBITALS     88 PRIMITIVES        8 NUCLEI
  C    1    (CENTRE  1)   0.14180784  2.79040371  0.00338592  CHARGE =  6.0
  H    2    (CENTRE  2)   0.80173784  0.81865459 -0.05412407  CHARGE =  1.0
  H    3    (CENTRE  3)   0.80436580  3.72462837 -1.73294655  CHARGE =  1.0
  H    4    (CENTRE  4)  -1.93715290  2.75814310 -0.05571144  CHARGE =  1.0
  C    5    (CENTRE  5)   1.10911935  4.15835317  2.37276494  CHARGE =  6.0
  H    6    (CENTRE  6)   3.18807956  4.19011015  2.43215330  CHARGE =  1.0
  H    7    (CENTRE  7)   0.44966455  6.13026973  2.42998425  CHARGE =  1.0
  H    8    (CENTRE  8)   0.44608672  3.22446473  4.10909710  CHARGE =  1.0
CENTRE ASSIGNMENTS    1  1  1  1  1  1  1  1  1  1  1  1  1  1  1  1  1  1  1  1
CENTRE ASSIGNMENTS    1  1  1  1  1  1  1  1  1  2  2  2  2  2  3  3  3  3  3  4
CENTRE ASSIGNMENTS    4  4  4  4  5  5  5  5  5  5  5  5  5  5  5  5  5  5  5  5
CENTRE ASSIGNMENTS    5  5  5  5  5  5  5  5  5  5  5  5  5  6  6  6  6  6  7  7
CENTRE ASSIGNMENTS    7  7  7  8  8  8  8  8
TYPE ASSIGNMENTS      1  1  1  1  1  1  1  1  1  1  1  2  2  2  2  3  3  3  3  4
TYPE ASSIGNMENTS      4  4  4  2  3  4  2  3  4  1  1  1  1  1  1  1  1  1  1  1
TYPE ASSIGNMENTS      1  1  1  1  1  1  1  1  1  1  1  1  1  1  1  2  2  2  2  3
TYPE ASSIGNMENTS      3  3  3  4  4  4  4  2  3  4  2  3  4  1  1  1  1  1  1  1
TYPE ASSIGNMENTS      1  1  1  1  1  1  1  1
EXPONENTS  0.1357535D+05 0.2035233D+04 0.4632256D+03 0.1312002D+03 0.4285302D+02
EXPONENTS  0.1558419D+02 0.6206714D+01 0.2576490D+01 0.5769634D+00 0.2297283D+00
EXPONENTS  0.9516444D-01 0.3469723D+02 0.7958262D+01 0.2378083D+01 0.8143321D+00
EXPONENTS  0.3469723D+02 0.7958262D+01 0.2378083D+01 0.8143321D+00 0.3469723D+02
EXPONENTS  0.7958262D+01 0.2378083D+01 0.8143321D+00 0.2888755D+00 0.2888755D+00
EXPONENTS  0.2888755D+00 0.1005682D+00 0.1005682D+00 0.1005682D+00 0.3406134D+02
EXPONENTS  0.5123575D+01 0.1164663D+01 0.3272304D+00 0.1030724D+00 0.3406134D+02
EXPONENTS  0.5123575D+01 0.1164663D+01 0.3272304D+00 0.1030724D+00 0.3406134D+02
EXPONENTS  0.5123575D+01 0.1164663D+01 0.3272304D+00 0.1030724D+00 0.1357535D+05
EXPONENTS  0.2035233D+04 0.4632256D+03 0.1312002D+03 0.4285302D+02 0.1558419D+02
EXPONENTS  0.6206714D+01 0.2576490D+01 0.5769634D+00 0.2297283D+00 0.9516444D-01
EXPONENTS  0.3469723D+02 0.7958262D+01 0.2378083D+01 0.8143321D+00 0.3469723D+02
EXPONENTS  0.7958262D+01 0.2378083D+01 0.8143321D+00 0.3469723D+02 0.7958262D+01
EXPONENTS  0.2378083D+01 0.8143321D+00 0.2888755D+00 0.2888755D+00 0.2888755D+00
EXPONENTS  0.1005682D+00 0.1005682D+00 0.1005682D+00 0.3406134D+02 0.5123575D+01
EXPONENTS  0.1164663D+01 0.3272304D+00 0.1030724D+00 0.3406134D+02 0.5123575D+01
EXPONENTS  0.1164663D+01 0.3272304D+00 0.1030724D+00 0.3406134D+02 0.5123575D+01
EXPONENTS  0.1164663D+01 0.3272304D+00 0.1030724D+00
MO    1     MO 0.0        OCC NO =    2.0000000  ORB. ENERGY =   -9.873778
  0.17946498D+00  0.33495239D+00  0.57167421D+00  0.88843880D+00  0.11900010D+01
  0.12223888D+01  0.79022979D+00  0.23416797D+00  0.13849792D-01 -0.59301647D-02
  0.30361203D-02  0.38295419D-04  0.40875189D-04  0.35795971D-04  0.22604709D-04
  0.54161930D-04  0.57810547D-04  0.50626914D-04  0.31970265D-04  0.93800813D-04
  0.10011970D-03  0.87678665D-04  0.55367984D-04  0.76024900D-04  0.10751154D-03
  0.18621998D-03 -0.65498553D-04 -0.92626234D-04 -0.16043585D-03 -0.67828820D-04
 -0.12241721D-03 -0.18072872D-03  0.46376096D-03 -0.86409949D-03 -0.67828792D-04
 -0.12241716D-03 -0.18072864D-03  0.46376158D-03 -0.86410039D-03 -0.67828715D-04
 -0.12241702D-03 -0.18072844D-03  0.46376092D-03 -0.86409953D-03  0.17946609D+00
  0.33495447D+00  0.57167776D+00  0.88844431D+00  0.11900084D+01  0.12223963D+01
  0.79023469D+00  0.23416943D+00  0.13849882D-01 -0.59302111D-02  0.30361538D-02
 -0.38295691D-04 -0.40875479D-04 -0.35796226D-04 -0.22604870D-04 -0.54162216D-04
 -0.57810853D-04 -0.50627182D-04 -0.31970434D-04 -0.93801344D-04 -0.10012027D-03
 -0.87679160D-04 -0.55368297D-04 -0.76023801D-04 -0.10751001D-03 -0.18621732D-03
  0.65497629D-04  0.92624940D-04  0.16043359D-03 -0.67828920D-04 -0.12241739D-03
 -0.18072898D-03  0.46376465D-03 -0.86410460D-03 -0.67829025D-04 -0.12241758D-03
 -0.18072927D-03  0.46376469D-03 -0.86410458D-03 -0.67828997D-04 -0.12241753D-03
 -0.18072919D-03  0.46376531D-03 -0.86410546D-03
MO    2     MO 0.0        OCC NO =    2.0000000  ORB. ENERGY =   -9.873689
  0.17948611D+00  0.33499183D+00  0.57174151D+00  0.88854338D+00  0.11901411D+01
  0.12225327D+01  0.78991952D+00  0.23407603D+00  0.14490705D-01 -0.74847076D-02
  0.54065293D-02  0.37933829D-04  0.40489240D-04  0.35457981D-04  0.22391273D-04
  0.53650485D-04  0.57264649D-04  0.50148850D-04  0.31668374D-04  0.92915389D-04
  0.99174632D-04  0.86851030D-04  0.54845343D-04 -0.17611394D-03 -0.24905711D-03
 -0.43138117D-03  0.14871357D-03  0.21030749D-03  0.36426587D-03 -0.33140992D-04
 -0.59812745D-04 -0.88303601D-04  0.60114144D-03 -0.81797996D-03 -0.33141002D-04
 -0.59812763D-04 -0.88303627D-04  0.60114191D-03 -0.81798060D-03 -0.33140886D-04
 -0.59812553D-04 -0.88303318D-04  0.60114127D-03 -0.81797997D-03 -0.17948499D+00
 -0.33498975D+00 -0.57173796D+00 -0.88853787D+00 -0.11901337D+01 -0.12225251D+01
 -0.78991462D+00 -0.23407458D+00 -0.14490619D-01  0.74846708D-02 -0.54065105D-02
  0.37933627D-04  0.40489024D-04  0.35457792D-04  0.22391154D-04  0.53650099D-04
  0.57264236D-04  0.50148489D-04  0.31668145D-04  0.92914753D-04  0.99173952D-04
  0.86850435D-04  0.54844967D-04 -0.17611442D-03 -0.24905777D-03 -0.43138231D-03
  0.14871398D-03  0.21030806D-03  0.36426686D-03  0.33140465D-04  0.59811793D-04
  0.88302195D-04 -0.60113839D-03  0.81797460D-03  0.33140570D-04  0.59811984D-04
  0.88302477D-04 -0.60113857D-03  0.81797460D-03  0.33140581D-04  0.59812002D-04
  0.88302504D-04 -0.60113902D-03  0.81797523D-03
MO    3     MO 0.0        OCC NO =    2.0000000  ORB. ENERGY =   -0.681805
 -0.39111473D-01 -0.72997425D-01 -0.12458709D+00 -0.19362078D+00 -0.25934135D+00
 -0.26639974D+00 -0.27971269D+00 -0.82886972D-01  0.10916887D+00  0.69704669D-01
 -0.62313351D-03  0.18549749D-01  0.19799352D-01  0.17339052D-01  0.10949395D-01
  0.26232576D-01  0.27999732D-01  0.24520440D-01  0.15484352D-01  0.45436554D-01
  0.48497386D-01  0.42471021D-01  0.26819920D-01  0.18838468D-02  0.26641028D-02
  0.46143858D-02  0.24629998D-03  0.34831833D-03  0.60331403D-03  0.14061332D-01
  0.25377843D-01  0.37466177D-01  0.12423180D-01  0.29725734D-02  0.14061334D-01
  0.25377846D-01  0.37466182D-01  0.12423177D-01  0.29725769D-02  0.14061327D-01
  0.25377833D-01  0.37466163D-01  0.12423169D-01  0.29725636D-02 -0.39111472D-01
 -0.72997425D-01 -0.12458709D+00 -0.19362078D+00 -0.25934135D+00 -0.26639974D+00
 -0.27971269D+00 -0.82886972D-01  0.10916887D+00  0.69704669D-01 -0.62313348D-03
 -0.18549749D-01 -0.19799353D-01 -0.17339053D-01 -0.10949396D-01 -0.26232574D-01
 -0.27999731D-01 -0.24520439D-01 -0.15484351D-01 -0.45436555D-01 -0.48497387D-01
 -0.42471022D-01 -0.26819921D-01 -0.18838467D-02 -0.26641025D-02 -0.46143858D-02
 -0.24630001D-03 -0.34831836D-03 -0.60331403D-03  0.14061327D-01  0.25377833D-01
  0.37466163D-01  0.12423169D-01  0.29725636D-02  0.14061333D-01  0.25377843D-01
  0.37466177D-01  0.12423180D-01  0.29725734D-02  0.14061334D-01  0.25377846D-01
  0.37466182D-01  0.12423177D-01  0.29725768D-02
MO    4     MO 0.0        OCC NO =    2.0000000  ORB. ENERGY =   -0.554684
 -0.34357623D-01 -0.64124867D-01 -0.10944401D+00 -0.17008692D+00 -0.22781940D+00
 -0.23401987D+00 -0.24644077D+00 -0.73027539D-01  0.93444820D-01  0.75963729D-01
 -0.27866554D-02 -0.43867193D-01 -0.46822305D-01 -0.41004089D-01 -0.25893571D-01
 -0.62036035D-01 -0.66215091D-01 -0.57987095D-01 -0.36618128D-01 -0.10745059D+00
 -0.11468900D+00 -0.10043756D+00 -0.63425064D-01 -0.64508612D-02 -0.91226605D-02
 -0.15801069D-01 -0.66109389D-03 -0.93490039D-03 -0.16193104D-02  0.19334653D-01
  0.34895112D-01  0.51516847D-01  0.20217530D-01  0.43780700D-02  0.19334657D-01
  0.34895120D-01  0.51516859D-01  0.20217534D-01  0.43780683D-02  0.19334641D-01
  0.34895092D-01  0.51516818D-01  0.20217519D-01  0.43780613D-02  0.34357623D-01
  0.64124868D-01  0.10944401D+00  0.17008692D+00  0.22781940D+00  0.23401987D+00
  0.24644077D+00  0.73027539D-01 -0.93444820D-01 -0.75963729D-01  0.27866555D-02
 -0.43867193D-01 -0.46822305D-01 -0.41004089D-01 -0.25893571D-01 -0.62036037D-01
 -0.66215092D-01 -0.57987097D-01 -0.36618129D-01 -0.10745059D+00 -0.11468900D+00
 -0.10043756D+00 -0.63425064D-01 -0.64508612D-02 -0.91226608D-02 -0.15801069D-01
 -0.66109388D-03 -0.93490037D-03 -0.16193104D-02 -0.19334641D-01 -0.34895092D-01
 -0.51516818D-01 -0.20217519D-01 -0.43780613D-02 -0.19334653D-01 -0.34895112D-01
 -0.51516848D-01 -0.20217530D-01 -0.43780701D-02 -0.19334657D-01 -0.34895120D-01
 -0.51516859D-01 -0.20217534D-01 -0.43780683D-02
MO    5     MO 0.0        OCC NO =    2.0000000  ORB. ENERGY =   -0.387342
  0.20778717D-08  0.38781277D-08  0.66189273D-08  0.10286474D-07  0.13778005D-07
  0.14152995D-07  0.33666684D-07  0.99764137D-08 -0.31247017D-07  0.19892349D-07
 -0.14400696D-07 -0.75165080D-01 -0.80228574D-01 -0.70259240D-01 -0.44367834D-01
  0.28176630D+00  0.30074747D+00  0.26337610D+00  0.16631872D+00 -0.13198985D+00
 -0.14088135D+00 -0.12337520D+00 -0.77909901D-01 -0.14054298D-01  0.52684301D-01
 -0.24679267D-01 -0.13398596D-02  0.50205766D-02 -0.23516010D-02 -0.27536705D-01
 -0.49698148D-01 -0.73371075D-01 -0.39469888D-01 -0.74407351D-02  0.20395543D-01
  0.36809803D-01  0.54343571D-01  0.29234395D-01  0.55118253D-02  0.71411630D-02
  0.12888346D-01  0.19027505D-01  0.10235488D-01  0.19289159D-02 -0.18803445D-08
 -0.35094640D-08 -0.59897170D-08 -0.93086182D-08 -0.12468236D-07 -0.12807579D-07
 -0.32245250D-07 -0.95552016D-08  0.30803708D-07 -0.20566943D-07  0.14447710D-07
 -0.75168279D-01 -0.80231988D-01 -0.70262230D-01 -0.44369722D-01  0.28176610D+00
  0.30074727D+00  0.26337592D+00  0.16631861D+00 -0.13198844D+00 -0.14087984D+00
 -0.12337388D+00 -0.77909065D-01 -0.14054843D-01  0.52684268D-01 -0.24679026D-01
 -0.13388223D-02  0.50206382D-02 -0.23520601D-02 -0.71499820D-02 -0.12904262D-01
 -0.19051003D-01 -0.10248854D-01 -0.19328466D-02  0.27539142D-01  0.49702546D-01
  0.73377569D-01  0.39473581D-01  0.74418213D-02 -0.20389161D-01 -0.36798285D-01
 -0.54326567D-01 -0.29224723D-01 -0.55089810D-02
MO    6     MO 0.0        OCC NO =    2.0000000  ORB. ENERGY =   -0.387342
  0.60016720D-08  0.11201486D-07  0.19117942D-07  0.29711191D-07  0.39796040D-07
  0.40879153D-07  0.40846772D-07  0.12104082D-07 -0.36403446D-08 -0.28216456D-07
 -0.43156451D-07  0.29228129D+00  0.31197081D+00  0.27320481D+00  0.17252543D+00
  0.17374702D-01  0.18545148D-01  0.16240697D-01  0.10255798D-01 -0.12935656D+00
 -0.13807066D+00 -0.12091378D+00 -0.76355543D-01  0.54650367D-01  0.32487117D-02
 -0.24186932D-01  0.52078175D-02  0.31011740D-03 -0.23051732D-02  0.76524185D-02
  0.13811058D-01  0.20389737D-01  0.10969032D-01  0.20686164D-02  0.20021271D-01
  0.36134319D-01  0.53346331D-01  0.28697431D-01  0.54095640D-02 -0.27673698D-01
 -0.49945391D-01 -0.73736089D-01 -0.39666460D-01 -0.74781748D-02 -0.59725850D-08
 -0.11147198D-07 -0.19025287D-07 -0.29567196D-07 -0.39603170D-07 -0.40681033D-07
 -0.40779716D-07 -0.12084211D-07  0.36103656D-08  0.28262637D-07  0.43055992D-07
  0.29228047D+00  0.31196993D+00  0.27320404D+00  0.17252495D+00  0.17377787D-01
  0.18548441D-01  0.16243582D-01  0.10257619D-01 -0.12935801D+00 -0.13807221D+00
 -0.12091513D+00 -0.76356396D-01  0.54650226D-01  0.32492379D-02 -0.24187179D-01
  0.52080843D-02  0.30911745D-03 -0.23047048D-02  0.27671420D-01  0.49941281D-01
  0.73730021D-01  0.39663008D-01  0.74771597D-02 -0.76436421D-02 -0.13795218D-01
 -0.20366352D-01 -0.10955731D-01 -0.20647047D-02 -0.20027770D-01 -0.36146048D-01
 -0.53363647D-01 -0.28707280D-01 -0.54124605D-02
MO    7     MO 0.0        OCC NO =    2.0000000  ORB. ENERGY =   -0.327369
 -0.46296631D-02 -0.86407764D-02 -0.14747496D-01 -0.22919081D-01 -0.30698489D-01
 -0.31533997D-01 -0.34262861D-01 -0.10153078D-01  0.17183152D-01  0.45039387D-02
  0.26222337D-02  0.13757710D+00  0.14684497D+00  0.12859778D+00  0.81207893D-01
  0.19455869D+00  0.20766514D+00  0.18186033D+00  0.11484253D+00  0.33698877D+00
  0.35969001D+00  0.31499434D+00  0.19891500D+00  0.25092830D-01  0.35485781D-01
  0.61463740D-01  0.27476304D-02  0.38856513D-02  0.67302130D-02 -0.13119780D-01
 -0.23678533D-01 -0.34957428D-01 -0.19999743D-01 -0.60648623D-02 -0.13119793D-01
 -0.23678556D-01 -0.34957462D-01 -0.19999777D-01 -0.60648581D-02 -0.13119731D-01
 -0.23678443D-01 -0.34957296D-01 -0.19999683D-01 -0.60648466D-02 -0.46296632D-02
 -0.86407766D-02 -0.14747496D-01 -0.22919081D-01 -0.30698490D-01 -0.31533998D-01
 -0.34262862D-01 -0.10153078D-01  0.17183152D-01  0.45039389D-02  0.26222339D-02
 -0.13757710D+00 -0.14684497D+00 -0.12859778D+00 -0.81207893D-01 -0.19455870D+00
 -0.20766514D+00 -0.18186033D+00 -0.11484253D+00 -0.33698877D+00 -0.35969001D+00
 -0.31499434D+00 -0.19891500D+00 -0.25092830D-01 -0.35485782D-01 -0.61463740D-01
 -0.27476304D-02 -0.38856513D-02 -0.67302129D-02 -0.13119731D-01 -0.23678444D-01
 -0.34957296D-01 -0.19999683D-01 -0.60648467D-02 -0.13119780D-01 -0.23678533D-01
 -0.34957428D-01 -0.19999743D-01 -0.60648623D-02 -0.13119793D-01 -0.23678556D-01
 -0.34957462D-01 -0.19999777D-01 -0.60648581D-02
MO    8     MO 0.0        OCC NO =    2.0000000  ORB. ENERGY =   -0.299616
  0.17076528D-08  0.31871533D-08  0.54396189D-08  0.84537108D-08  0.11323148D-07
  0.11631326D-07  0.30043801D-07  0.89028483D-08 -0.22396474D-07  0.23503862D-10
 -0.95626198D-09 -0.11787413D+00 -0.12581471D+00 -0.11018077D+00 -0.69577784D-01
  0.27060673D+00  0.28883614D+00  0.25294489D+00  0.15973155D+00 -0.10811084D+00
 -0.11539372D+00 -0.10105471D+00 -0.63814788D-01 -0.21878918D-01  0.50228267D-01
 -0.20066874D-01 -0.28469739D-02  0.65364811D-02 -0.26115135D-02 -0.34204735D-01
 -0.61732584D-01 -0.91137925D-01 -0.58492424D-01 -0.14855937D-01  0.20485422D-01
  0.36972016D-01  0.54583052D-01  0.35030989D-01  0.88968005D-02  0.13719322D-01
  0.24760583D-01  0.36554896D-01  0.23461460D-01  0.59591384D-02  0.16466587D-08
  0.30733142D-08  0.52453258D-08  0.81517600D-08  0.10918706D-07  0.11215876D-07
  0.29548071D-07  0.87559494D-08 -0.22119574D-07  0.58159436D-10 -0.12968366D-08
  0.11788057D+00  0.12582160D+00  0.11018680D+00  0.69581590D-01 -0.27060530D+00
 -0.28883462D+00 -0.25294356D+00 -0.15973070D+00  0.10810738D+00  0.11539003D+00
  0.10105148D+00  0.63812750D-01  0.21880333D-01 -0.50227955D-01  0.20066116D-01
  0.28476060D-02 -0.65363412D-02  0.26111748D-02  0.13729142D-01  0.24778307D-01
  0.36581062D-01  0.23477247D-01  0.59623408D-02 -0.34205949D-01 -0.61734774D-01
 -0.91141159D-01 -0.58494375D-01 -0.14856333D-01  0.20476815D-01  0.36956483D-01
  0.54560119D-01  0.35017154D-01  0.88939940D-02
MO    9     MO 0.0        OCC NO =    2.0000000  ORB. ENERGY =   -0.299616
 -0.40752263D-08 -0.76059787D-08 -0.12981373D-07 -0.20174349D-07 -0.27022115D-07
 -0.27757565D-07 -0.28316540D-07 -0.83910109D-08  0.19993680D-07 -0.63727878D-08
  0.53828266D-08  0.27191307D+00  0.29023048D+00  0.25416597D+00  0.16050264D+00
  0.60206519D-01  0.64262329D-01  0.56276987D-01  0.35538216D-01 -0.14576939D+00
 -0.15558914D+00 -0.13625538D+00 -0.86043572D-01  0.50470779D-01  0.11175022D-01
 -0.27056705D-01  0.65680777D-02  0.14540341D-02 -0.35209232D-02  0.39063951D-02
  0.70502481D-02  0.10408522D-01  0.66796498D-02  0.16960593D-02  0.27668952D-01
  0.49936826D-01  0.73723444D-01  0.47316088D-01  0.12017581D-01 -0.31575386D-01
 -0.56987145D-01 -0.84132071D-01 -0.53995798D-01 -0.13713670D-01 -0.41072424D-08
 -0.76657333D-08 -0.13083358D-07 -0.20332844D-07 -0.27234408D-07 -0.27975636D-07
 -0.28396875D-07 -0.84148167D-08  0.19984682D-07 -0.63264303D-08  0.54830482D-08
 -0.27191027D+00 -0.29022750D+00 -0.25416336D+00 -0.16050099D+00 -0.60212932D-01
 -0.64269174D-01 -0.56282981D-01 -0.35542001D-01  0.14577195D+00  0.15559187D+00
  0.13625777D+00  0.86045085D-01 -0.50470166D-01 -0.11176429D-01  0.27057268D-01
 -0.65678038D-02 -0.14546630D-02  0.35211744D-02 -0.31571118D-01 -0.56979441D-01
 -0.84120697D-01 -0.53988936D-01 -0.13712278D-01  0.38957563D-02  0.70310471D-02
  0.10380175D-01  0.66625475D-02  0.16925900D-02  0.27675322D-01  0.49948323D-01
  0.73740418D-01  0.47326329D-01  0.12019658D-01
END DATA
 TOTAL ENERGY =      -79.706246137727 THE VIRIAL(-V/T)=   2.00542665
