 xx
GAUSSIAN              5 MOL ORBITALS     39 PRIMITIVES        3 NUCLEI
  O    1    (CENTRE  1)  -1.51841387  0.76276621  0.00000000  CHARGE =  8.0
  H    2    (CENTRE  2)   0.34169814  0.77436849  0.00000000  CHARGE =  1.0
  H    3    (CENTRE  3)  -2.12839551  2.52005820  0.00000000  CHARGE =  1.0
CENTRE ASSIGNMENTS    1  1  1  1  1  1  1  1  1  1  1  1  1  1  1  1  1  1  1  1
CENTRE ASSIGNMENTS    1  1  1  1  1  1  1  1  1  2  2  2  2  2  3  3  3  3  3
TYPE ASSIGNMENTS      1  1  1  1  1  1  1  1  1  1  1  2  2  2  2  3  3  3  3  4
TYPE ASSIGNMENTS      4  4  4  2  3  4  2  3  4  1  1  1  1  1  1  1  1  1  1
EXPONENTS  0.2703238D+05 0.4052387D+04 0.9223272D+03 0.2612407D+03 0.8535464D+02
EXPONENTS  0.3103504D+02 0.1226086D+02 0.4998708D+01 0.1170311D+01 0.4647474D+00
EXPONENTS  0.1850454D+00 0.6327495D+02 0.1462705D+02 0.4450122D+01 0.1527580D+01
EXPONENTS  0.6327495D+02 0.1462705D+02 0.4450122D+01 0.1527580D+01 0.6327495D+02
EXPONENTS  0.1462705D+02 0.4450122D+01 0.1527580D+01 0.5293512D+00 0.5293512D+00
EXPONENTS  0.5293512D+00 0.1747842D+00 0.1747842D+00 0.1747842D+00 0.3406134D+02
EXPONENTS  0.5123575D+01 0.1164663D+01 0.3272304D+00 0.1030724D+00 0.3406134D+02
EXPONENTS  0.5123575D+01 0.1164663D+01 0.3272304D+00 0.1030724D+00
MO    1     MO 0.0        OCC NO =    2.0000000  ORB. ENERGY =  -18.753497
  0.37427140D+00  0.69884097D+00  0.11952011D+01  0.18711290D+01  0.25592921D+01
  0.27493453D+01  0.19050355D+01  0.60192226D+00  0.28448238D-01 -0.86424938D-02
  0.22276250D-02  0.41417852D-02  0.45851752D-02  0.39930654D-02  0.23191209D-02
  0.58604793D-02  0.64878604D-02  0.56500459D-02  0.32814738D-02  0.58088002D-15
  0.64306489D-15  0.56002225D-15  0.32525370D-15 -0.68811385D-03 -0.97365660D-03
 -0.24125889D-17  0.16785897D-03  0.23751463D-03 -0.25017638D-16  0.13470074D-03
  0.24310742D-03  0.35890779D-03 -0.79975048D-04 -0.24818487D-03  0.13470067D-03
  0.24310730D-03  0.35890762D-03 -0.79975180D-04 -0.24818460D-03
MO    2     MO 0.0        OCC NO =    2.0000000  ORB. ENERGY =   -0.932104
 -0.83437507D-01 -0.15579483D+00 -0.26644997D+00 -0.41713671D+00 -0.57055107D+00
 -0.61292025D+00 -0.67511931D+00 -0.21331327D+00  0.25565853D+00  0.19242743D+00
  0.27700333D-01  0.18568370D+00  0.20556167D+00  0.17901632D+00  0.10397037D+00
  0.26273618D+00  0.29086284D+00  0.25330206D+00  0.14711457D+00 -0.79301118D-15
 -0.87790530D-15 -0.76453637D-15 -0.44403287D-15  0.41112964D-01  0.58173475D-01
  0.28660713D-15  0.11147202D-02  0.15772924D-02 -0.43381004D-16  0.24846719D-01
  0.44843270D-01  0.66203653D-01  0.18479614D-01  0.15142279D-02  0.24846703D-01
  0.44843241D-01  0.66203610D-01  0.18479611D-01  0.15142246D-02
MO    3     MO 0.0        OCC NO =    2.0000000  ORB. ENERGY =   -0.490913
  0.85421686D-08  0.15949969D-07  0.27278626D-07  0.42705640D-07  0.58411902D-07
  0.62749575D-07  0.79420081D-07  0.25093871D-07 -0.27023038D-07 -0.30014849D-07
 -0.11871634D-07  0.94661910D+00  0.10479574D+01  0.91262867D+00  0.53004297D+00
 -0.66900407D+00 -0.74062288D+00 -0.64498202D+00 -0.37459724D+00  0.98399832D-15
  0.10893382D-14  0.94866571D-15  0.55097281D-15  0.16332069D+00 -0.11542364D+00
 -0.13923408D-15  0.11277163D-01 -0.79699078D-02  0.34940740D-16  0.40500791D-01
  0.73095684D-01  0.10791366D+00  0.61726607D-01  0.97536258D-02 -0.40500786D-01
 -0.73095674D-01 -0.10791364D+00 -0.61726620D-01 -0.97536244D-02
MO    4     MO 0.0        OCC NO =    2.0000000  ORB. ENERGY =   -0.311312
  0.35315375D-01  0.65941002D-01  0.11277639D+00  0.17655536D+00  0.24148882D+00
  0.25942180D+00  0.29143615D+00  0.92083277D-01 -0.12451364D+00 -0.80708109D-01
 -0.45420296D-01  0.72273204D+00  0.80010257D+00  0.69678076D+00  0.40468128D+00
  0.10226423D+01  0.11321191D+01  0.98592208D+00  0.57261084D+00  0.62125249D-15
  0.68775935D-15  0.59894506D-15  0.34785957D-15  0.12000342D+00  0.16980094D+00
 -0.26761983D-15  0.24276169D-01  0.34349989D-01 -0.17604798D-17  0.21799018D-01
  0.39342791D-01  0.58083108D-01  0.32654632D-01  0.71648614D-02  0.21799021D-01
  0.39342796D-01  0.58083115D-01  0.32654649D-01  0.71648629D-02
MO    5     MO 0.0        OCC NO =    2.0000000  ORB. ENERGY =   -0.251279
  0.13275576D-16  0.24788205D-16  0.42394325D-16  0.66369793D-16  0.90779248D-16
  0.97520523D-16  0.13552019D-16  0.42819476D-17  0.23617766D-15 -0.46064462D-15
  0.24874916D-15 -0.25767573D-15 -0.28526065D-15 -0.24842332D-15 -0.14428106D-15
  0.48588583D-15  0.53790130D-15  0.46843903D-15  0.27206335D-15  0.14567170D+01
  0.16126627D+01  0.14044104D+01  0.81566345D+00 -0.18415838D-15  0.17489037D-15
  0.25108125D+00  0.23124631D-15 -0.17340081D-15  0.56916605D-01 -0.76932285D-17
 -0.13884711D-16 -0.20498474D-16 -0.66398556D-17 -0.22108078D-15  0.24943848D-16
  0.45018569D-16  0.66462452D-16  0.26657841D-15  0.50670903D-16
END DATA
 TOTAL ENERGY =      -76.344595252653 THE VIRIAL(-V/T)=   2.00347587
