 xx
GAUSSIAN              9 MOL ORBITALS     68 PRIMITIVES        4 NUCLEI
  O    1    (CENTRE  1)  -1.69851976  0.77754637  0.28995885  CHARGE =  8.0
  H    2    (CENTRE  2)  -2.16733990  2.50086764 -0.29228742  CHARGE =  1.0
  O    3    (CENTRE  3)   1.18383951  1.04899289  0.11407883  CHARGE =  8.0
  H    4    (CENTRE  4)   1.65266177 -0.18659869  1.44905573  CHARGE =  1.0
CENTRE ASSIGNMENTS    1  1  1  1  1  1  1  1  1  1  1  1  1  1  1  1  1  1  1  1
CENTRE ASSIGNMENTS    1  1  1  1  1  1  1  1  1  2  2  2  2  2  3  3  3  3  3  3
CENTRE ASSIGNMENTS    3  3  3  3  3  3  3  3  3  3  3  3  3  3  3  3  3  3  3  3
CENTRE ASSIGNMENTS    3  3  3  4  4  4  4  4
TYPE ASSIGNMENTS      1  1  1  1  1  1  1  1  1  1  1  2  2  2  2  3  3  3  3  4
TYPE ASSIGNMENTS      4  4  4  2  3  4  2  3  4  1  1  1  1  1  1  1  1  1  1  1
TYPE ASSIGNMENTS      1  1  1  1  1  2  2  2  2  3  3  3  3  4  4  4  4  2  3  4
TYPE ASSIGNMENTS      2  3  4  1  1  1  1  1
EXPONENTS  0.2703238D+05 0.4052387D+04 0.9223272D+03 0.2612407D+03 0.8535464D+02
EXPONENTS  0.3103504D+02 0.1226086D+02 0.4998708D+01 0.1170311D+01 0.4647474D+00
EXPONENTS  0.1850454D+00 0.6327495D+02 0.1462705D+02 0.4450122D+01 0.1527580D+01
EXPONENTS  0.6327495D+02 0.1462705D+02 0.4450122D+01 0.1527580D+01 0.6327495D+02
EXPONENTS  0.1462705D+02 0.4450122D+01 0.1527580D+01 0.5293512D+00 0.5293512D+00
EXPONENTS  0.5293512D+00 0.1747842D+00 0.1747842D+00 0.1747842D+00 0.3406134D+02
EXPONENTS  0.5123575D+01 0.1164663D+01 0.3272304D+00 0.1030724D+00 0.2703238D+05
EXPONENTS  0.4052387D+04 0.9223272D+03 0.2612407D+03 0.8535464D+02 0.3103504D+02
EXPONENTS  0.1226086D+02 0.4998708D+01 0.1170311D+01 0.4647474D+00 0.1850454D+00
EXPONENTS  0.6327495D+02 0.1462705D+02 0.4450122D+01 0.1527580D+01 0.6327495D+02
EXPONENTS  0.1462705D+02 0.4450122D+01 0.1527580D+01 0.6327495D+02 0.1462705D+02
EXPONENTS  0.4450122D+01 0.1527580D+01 0.5293512D+00 0.5293512D+00 0.5293512D+00
EXPONENTS  0.1747842D+00 0.1747842D+00 0.1747842D+00 0.3406134D+02 0.5123575D+01
EXPONENTS  0.1164663D+01 0.3272304D+00 0.1030724D+00
MO    1     MO 0.0        OCC NO =    2.0000000  ORB. ENERGY =  -18.817392
 -0.26449967D+00 -0.49387478D+00 -0.84465526D+00 -0.13223372D+01 -0.18086659D+01
 -0.19429776D+01 -0.13462544D+01 -0.42536768D+00 -0.20560357D-01  0.67731144D-02
 -0.23379767D-02 -0.25803720D-02 -0.28566082D-02 -0.24877181D-02 -0.14448346D-02
 -0.39966691D-02 -0.44245240D-02 -0.38531600D-02 -0.22378656D-02  0.12855356D-02
  0.14231558D-02  0.12393756D-02  0.71981337D-03  0.85190496D-03  0.71643098D-03
 -0.25965031D-03 -0.47055499D-03 -0.23319729D-03  0.87282498D-04 -0.13566189D-03
 -0.24484209D-03 -0.36146876D-03  0.22826603D-03  0.14820779D-03  0.26480566D+00
  0.49444613D+00  0.84563242D+00  0.13238670D+01  0.18107583D+01  0.19452253D+01
  0.13478123D+01  0.42585991D+00  0.20583009D-01 -0.67796380D-02  0.23394459D-02
 -0.25825083D-02 -0.28589732D-02 -0.24897777D-02 -0.14460308D-02 -0.28095818D-02
 -0.31103555D-02 -0.27086976D-02 -0.15731766D-02  0.31260975D-02  0.34607552D-02
  0.30138481D-02  0.17504041D-02  0.85191474D-03  0.53025116D-03 -0.54841081D-03
 -0.47052808D-03 -0.17511373D-03  0.17735501D-03  0.13574946D-03  0.24500015D-03
  0.36170209D-03 -0.22831032D-03 -0.14848416D-03
MO    2     MO 0.0        OCC NO =    2.0000000  ORB. ENERGY =  -18.817377
  0.26479419D+00  0.49442471D+00  0.84559577D+00  0.13238096D+01  0.18106798D+01
  0.19451410D+01  0.13481248D+01  0.42595866D+00  0.19603545D-01 -0.56467449D-02
  0.12724692D-02  0.18510618D-02  0.20492233D-02  0.17845954D-02  0.10364700D-02
  0.39612622D-02  0.43853267D-02  0.38190244D-02  0.22180402D-02 -0.12349744D-02
 -0.13671819D-02 -0.11906299D-02 -0.69150250D-03 -0.91853370D-05 -0.67176555D-03
  0.19521703D-03 -0.22866266D-04  0.19920471D-03 -0.64833120D-04  0.76046834D-04
  0.13724905D-03  0.20262547D-03 -0.38553115D-04 -0.23923371D-03  0.26448818D+00
  0.49385333D+00  0.84461857D+00  0.13222798D+01  0.18085873D+01  0.19428932D+01
  0.13465673D+01  0.42546654D+00  0.19579758D-01 -0.56389085D-02  0.12697643D-02
 -0.18480745D-02 -0.20459162D-02 -0.17817153D-02 -0.10347973D-02 -0.27425457D-02
 -0.30361430D-02 -0.26440686D-02 -0.15356409D-02  0.31072351D-02  0.34398736D-02
  0.29956631D-02  0.17398425D-02  0.81999190D-05  0.45205443D-03 -0.53272373D-03
  0.23410449D-04 -0.14036854D-03  0.15511898D-03  0.75890007D-04  0.13696602D-03
  0.20220761D-03 -0.38289329D-04 -0.23906172D-03
MO    3     MO 0.0        OCC NO =    2.0000000  ORB. ENERGY =   -1.017786
 -0.59641903D-01 -0.11136359D+00 -0.19046091D+00 -0.29817319D+00 -0.40783519D+00
 -0.43812107D+00 -0.48135237D+00 -0.15208993D+00  0.18102862D+00  0.13870766D+00
  0.16964856D-01  0.17404993D+00  0.19268247D+00  0.16780028D+00  0.97456241D-01
  0.16474389D+00  0.18238019D+00  0.15882840D+00  0.92245487D-01 -0.51503222D-01
 -0.57016790D-01 -0.49653886D-01 -0.28838337D-01  0.36730928D-01  0.37652831D-01
 -0.11730355D-01  0.74640412D-03 -0.40405302D-03  0.54239613D-03  0.15837775D-01
  0.28583959D-01  0.42199477D-01  0.12624594D-01  0.90103017D-03 -0.59641842D-01
 -0.11136347D+00 -0.19046071D+00 -0.29817288D+00 -0.40783477D+00 -0.43812062D+00
 -0.48135187D+00 -0.15208977D+00  0.18102842D+00  0.13870753D+00  0.16964833D-01
 -0.17405002D+00 -0.19268258D+00 -0.16780038D+00 -0.97456295D-01 -0.11432364D+00
 -0.12656232D+00 -0.11021860D+00 -0.64013544D-01  0.12931749D+00  0.14316130D+00
  0.12467406D+00  0.72409089D-01 -0.36730930D-01 -0.26091773D-01  0.29572736D-01
 -0.74640324D-03  0.66015107D-03 -0.14715827D-03  0.15837717D-01  0.28583854D-01
  0.42199322D-01  0.12624576D-01  0.90102563D-03
MO    4     MO 0.0        OCC NO =    2.0000000  ORB. ENERGY =   -0.843659
 -0.60815257D-01 -0.11355448D+00 -0.19420790D+00 -0.30403924D+00 -0.41585866D+00
 -0.44674037D+00 -0.49373260D+00 -0.15600163D+00  0.19256704D+00  0.14408220D+00
  0.22889473D-01 -0.13540454D+00 -0.14989998D+00 -0.13054254D+00 -0.75817426D-01
  0.25807277D+00  0.28570020D+00  0.24880610D+00  0.14450338D+00 -0.87832260D-01
 -0.97234955D-01 -0.84678451D-01 -0.49180153D-01 -0.18568178D-01  0.53190176D-01
 -0.17905973D-01 -0.15821874D-02  0.38964255D-03 -0.75558839D-04  0.24006715D-01
  0.43327233D-01  0.63965476D-01  0.23397633D-01  0.16928788D-02  0.60815335D-01
  0.11355462D+00  0.19420815D+00  0.30403963D+00  0.41585920D+00  0.44674094D+00
  0.49373322D+00  0.15600183D+00 -0.19256726D+00 -0.14408241D+00 -0.22889507D-01
 -0.13540437D+00 -0.14989979D+00 -0.13054238D+00 -0.75817330D-01  0.18561679D+00
  0.20548759D+00  0.17895181D+00  0.10393290D+00 -0.19965575D+00 -0.22102947D+00
 -0.19248667D+00 -0.11179378D+00 -0.18568138D-01  0.38077082D-01 -0.41230523D-01
 -0.15821861D-02  0.22817324D-03 -0.32475325D-03 -0.24006699D-01 -0.43327205D-01
 -0.63965434D-01 -0.23397660D-01 -0.16928769D-02
MO    5     MO 0.0        OCC NO =    2.0000000  ORB. ENERGY =   -0.470890
 -0.72360226D-04 -0.13511129D-03 -0.23107569D-03 -0.36175705D-03 -0.49480391D-03
 -0.53154809D-03  0.10647014D-02  0.33640712D-03 -0.46183502D-02  0.55458939D-02
  0.35004295D-02  0.84754453D+00  0.93827660D+00  0.81711158D+00  0.47456787D+00
 -0.44093130D+00 -0.48813425D+00 -0.42509869D+00 -0.24689184D+00  0.56271121D-01
  0.62295106D-01  0.54250583D-01  0.31508039D-01  0.15719475D+00 -0.72086575D-01
  0.72563692D-02  0.15645586D-01 -0.69803205D-02  0.66983111D-03 -0.27986605D-01
 -0.50510126D-01 -0.74569826D-01 -0.43635487D-01 -0.58923526D-02 -0.72375180D-04
 -0.13513921D-03 -0.23112345D-03 -0.36183181D-03 -0.49490616D-03 -0.53165794D-03
  0.10645671D-02  0.33636467D-03 -0.46182794D-02  0.55459168D-02  0.35004334D-02
 -0.84754448D+00 -0.93827655D+00 -0.81711154D+00 -0.47456785D+00  0.23152810D+00
  0.25631384D+00  0.22321457D+00  0.12964015D+00 -0.37944947D+00 -0.42007062D+00
 -0.36582450D+00 -0.21246616D+00 -0.15719475D+00  0.36078241D-01 -0.62829153D-01
 -0.15645587D-01  0.34635912D-02 -0.60973238D-02 -0.27986617D-01 -0.50510147D-01
 -0.74569857D-01 -0.43635530D-01 -0.58923562D-02
MO    6     MO 0.0        OCC NO =    2.0000000  ORB. ENERGY =   -0.442139
  0.28737938D-01  0.53659586D-01  0.91771950D-01  0.14367218D+00  0.19651188D+00
  0.21110487D+00  0.23703353D+00  0.74894018D-01 -0.10196084D+00 -0.66023095D-01
 -0.27253129D-01 -0.27089266D-01 -0.29989249D-01 -0.26116567D-01 -0.15168165D-01
  0.72518598D+00  0.80281922D+00  0.69914659D+00  0.40605533D+00 -0.37110437D+00
 -0.41083216D+00 -0.35777906D+00 -0.20779347D+00 -0.44576476D-02  0.12294550D+00
 -0.64003318D-01  0.34469976D-02  0.16195475D-01 -0.96249700D-02  0.24676626D-01
  0.44536287D-01  0.65750444D-01  0.39417724D-01  0.59411508D-02 -0.28737885D-01
 -0.53659488D-01 -0.91771781D-01 -0.14367192D+00 -0.19651152D+00 -0.21110448D+00
 -0.23703311D+00 -0.74893882D-01  0.10196066D+00  0.66022964D-01  0.27253045D-01
 -0.27089694D-01 -0.29989723D-01 -0.26116979D-01 -0.15168405D-01  0.63502954D+00
  0.70301127D+00  0.61222742D+00  0.35557379D+00 -0.51024424D+00 -0.56486735D+00
 -0.49192281D+00 -0.28570242D+00 -0.44577155D-02  0.10865336D+00 -0.86060664D-01
  0.34469781D-02  0.15402481D-01 -0.10848847D-01 -0.24676583D-01 -0.44536210D-01
 -0.65750330D-01 -0.39417635D-01 -0.59411463D-02
MO    7     MO 0.0        OCC NO =    2.0000000  ORB. ENERGY =   -0.346629
  0.16999756D-01  0.31742009D-01  0.54287150D-01  0.84988425D-01  0.11624543D+00
  0.12487783D+00  0.14066352D+00  0.44444583D-01 -0.61561241D-01 -0.35109047D-01
 -0.25720521D-01  0.45612730D+00  0.50495704D+00  0.43974905D+00  0.25540058D+00
  0.74145993D+00  0.82083534D+00  0.71483619D+00  0.41516764D+00  0.44208888D+00
  0.48941576D+00  0.42621471D+00  0.24754001D+00  0.80520011D-01  0.12584657D+00
  0.77723424D-01  0.13435457D-01  0.18774665D-01  0.16113300D-01  0.13126044D-01
  0.23689837D-01  0.34974117D-01  0.25731914D-01  0.21968172D-02  0.16999769D-01
  0.31742034D-01  0.54287193D-01  0.84988492D-01  0.11624552D+00  0.12487793D+00
  0.14066365D+00  0.44444623D-01 -0.61561329D-01 -0.35109019D-01 -0.25720599D-01
 -0.45612836D+00 -0.50495820D+00 -0.43975007D+00 -0.25540117D+00  0.10052665D+00
  0.11128832D+00  0.96917020D-01  0.56288156D-01  0.85737922D+00  0.94916412D+00
  0.82659314D+00  0.48007464D+00 -0.80520197D-01  0.19516019D-01  0.14661991D+00
 -0.13435479D-01  0.70351278D-02  0.23719860D-01  0.13126050D-01  0.23689848D-01
  0.34974132D-01  0.25731991D-01  0.21968201D-02
MO    8     MO 0.0        OCC NO =    2.0000000  ORB. ENERGY =   -0.308533
 -0.14941339D-01 -0.27898525D-01 -0.47713787D-01 -0.74697595D-01 -0.10216985D+00
 -0.10975699D+00 -0.12407271D+00 -0.39202486D-01  0.56053312D-01  0.25829208D-01
  0.30608515D-01 -0.30524051D+00 -0.33791738D+00 -0.29428018D+00 -0.17091414D+00
 -0.31076676D+00 -0.34403523D+00 -0.29960800D+00 -0.17400846D+00  0.91320082D+00
  0.10109616D+01  0.88041035D+00  0.51133098D+00 -0.55314116D-01 -0.48996623D-01
  0.15699934D+00 -0.91271205D-02 -0.36726323D-02  0.27523227D-01 -0.17234621D-01
 -0.31104983D-01 -0.45921351D-01 -0.38226780D-01 -0.38552802D-02 -0.14941358D-01
 -0.27898560D-01 -0.47713846D-01 -0.74697687D-01 -0.10216997D+00 -0.10975712D+00
 -0.12407284D+00 -0.39202528D-01  0.56053321D-01  0.25829371D-01  0.30608370D-01
  0.30523882D+00  0.33791551D+00  0.29427855D+00  0.17091319D+00  0.96046923D+00
  0.10632902D+01  0.92598148D+00  0.53779810D+00  0.89506074D-01  0.99087956D-01
  0.86292163D-01  0.50117376D-01  0.55313815D-01  0.16331528D+00  0.19432314D-01
  0.91271410D-02  0.26621369D-01  0.78942634D-02 -0.17234632D-01 -0.31105003D-01
 -0.45921380D-01 -0.38226762D-01 -0.38553216D-02
MO    9     MO 0.0        OCC NO =    2.0000000  ORB. ENERGY =   -0.218996
  0.36615850D-02  0.68369253D-02  0.11692933D-01  0.18305695D-01  0.25038155D-01
  0.26897491D-01  0.30354246D-01  0.95908430D-02 -0.13390074D-01 -0.88792039D-02
 -0.51920930D-02  0.32293199D-01  0.35750278D-01  0.31133641D-01  0.18082017D-01
  0.48369705D+00  0.53547820D+00  0.46632884D+00  0.27083778D+00  0.10193006D+01
  0.11284197D+01  0.98270041D+00  0.57073973D+00  0.57928275D-02  0.81890669D-01
  0.17482000D+00  0.24317118D-02  0.16620593D-01  0.39497406D-01  0.47765824D-02
  0.86207590D-02  0.12727121D-01  0.10342052D-01  0.26918928D-02 -0.36615817D-02
 -0.68369192D-02 -0.11692923D-01 -0.18305678D-01 -0.25038133D-01 -0.26897467D-01
 -0.30354242D-01 -0.95908420D-02  0.13390110D-01  0.88791336D-02  0.51921209D-02
  0.32295416D-01  0.35752733D-01  0.31135779D-01  0.18083259D-01 -0.73267939D+00
 -0.81111482D+00 -0.70637093D+00 -0.41025113D+00 -0.85797341D+00 -0.94982192D+00
 -0.82716600D+00 -0.48040735D+00  0.57932361D-02 -0.12609813D+00 -0.14617598D+00
  0.24317859D-02 -0.29258215D-01 -0.31308874D-01 -0.47765757D-02 -0.86207468D-02
 -0.12727103D-01 -0.10342098D-01 -0.26918932D-02
END DATA
 TOTAL ENERGY =     -151.415919922341 THE VIRIAL(-V/T)=   2.00349722
