 xx
GAUSSIAN             20 MOL ORBITALS    185 PRIMITIVES       13 NUCLEI
  C    1    (CENTRE  1)  -3.76578158 -1.32643081 -0.20844441  CHARGE =  6.0
  O    2    (CENTRE  2)  -0.98114222 -1.30922075  0.13797312  CHARGE =  8.0
  C    3    (CENTRE  3)  -0.14411686  1.35675151  0.39228345  CHARGE =  6.0
  C    4    (CENTRE  4)  -2.40853506  2.99076318 -0.39357880  CHARGE =  6.0
  C    5    (CENTRE  5)  -4.67384064  1.35056052  0.44183225  CHARGE =  6.0
  H    6    (CENTRE  6)  -4.19113013 -1.81090839 -2.19158409  CHARGE =  1.0
  H    7    (CENTRE  7)  -4.55124362 -2.79762814  1.02745940  CHARGE =  1.0
  H    8    (CENTRE  8)   0.38945845  1.70364336  2.37801437  CHARGE =  1.0
  H    9    (CENTRE  9)   1.52866693  1.61599685 -0.80930966  CHARGE =  1.0
  H   10    (CENTRE 10)  -2.39300775  4.86131761  0.50692758  CHARGE =  1.0
  H   11    (CENTRE 11)  -2.43732412  3.25729287 -2.45656704  CHARGE =  1.0
  H   12    (CENTRE 12)  -4.98156144  1.54091555  2.49044439  CHARGE =  1.0
  H   13    (CENTRE 13)  -6.43597264  1.85403259 -0.53363199  CHARGE =  1.0
CENTRE ASSIGNMENTS    1  1  1  1  1  1  1  1  1  1  1  1  1  1  1  1  1  1  1  1
CENTRE ASSIGNMENTS    1  1  1  1  1  1  1  1  1  2  2  2  2  2  2  2  2  2  2  2
CENTRE ASSIGNMENTS    2  2  2  2  2  2  2  2  2  2  2  2  2  2  2  2  2  2  3  3
CENTRE ASSIGNMENTS    3  3  3  3  3  3  3  3  3  3  3  3  3  3  3  3  3  3  3  3
CENTRE ASSIGNMENTS    3  3  3  3  3  3  3  4  4  4  4  4  4  4  4  4  4  4  4  4
CENTRE ASSIGNMENTS    4  4  4  4  4  4  4  4  4  4  4  4  4  4  4  4  5  5  5  5
CENTRE ASSIGNMENTS    5  5  5  5  5  5  5  5  5  5  5  5  5  5  5  5  5  5  5  5
CENTRE ASSIGNMENTS    5  5  5  5  5  6  6  6  6  6  7  7  7  7  7  8  8  8  8  8
CENTRE ASSIGNMENTS    9  9  9  9  9 10 10 10 10 10 11 11 11 11 11 12 12 12 12 12
CENTRE ASSIGNMENTS   13 13 13 13 13
TYPE ASSIGNMENTS      1  1  1  1  1  1  1  1  1  1  1  2  2  2  2  3  3  3  3  4
TYPE ASSIGNMENTS      4  4  4  2  3  4  2  3  4  1  1  1  1  1  1  1  1  1  1  1
TYPE ASSIGNMENTS      2  2  2  2  3  3  3  3  4  4  4  4  2  3  4  2  3  4  1  1
TYPE ASSIGNMENTS      1  1  1  1  1  1  1  1  1  2  2  2  2  3  3  3  3  4  4  4
TYPE ASSIGNMENTS      4  2  3  4  2  3  4  1  1  1  1  1  1  1  1  1  1  1  2  2
TYPE ASSIGNMENTS      2  2  3  3  3  3  4  4  4  4  2  3  4  2  3  4  1  1  1  1
TYPE ASSIGNMENTS      1  1  1  1  1  1  1  2  2  2  2  3  3  3  3  4  4  4  4  2
TYPE ASSIGNMENTS      3  4  2  3  4  1  1  1  1  1  1  1  1  1  1  1  1  1  1  1
TYPE ASSIGNMENTS      1  1  1  1  1  1  1  1  1  1  1  1  1  1  1  1  1  1  1  1
TYPE ASSIGNMENTS      1  1  1  1  1
EXPONENTS  0.1357535D+05 0.2035233D+04 0.4632256D+03 0.1312002D+03 0.4285302D+02
EXPONENTS  0.1558419D+02 0.6206714D+01 0.2576490D+01 0.5769634D+00 0.2297283D+00
EXPONENTS  0.9516444D-01 0.3469723D+02 0.7958262D+01 0.2378083D+01 0.8143321D+00
EXPONENTS  0.3469723D+02 0.7958262D+01 0.2378083D+01 0.8143321D+00 0.3469723D+02
EXPONENTS  0.7958262D+01 0.2378083D+01 0.8143321D+00 0.2888755D+00 0.2888755D+00
EXPONENTS  0.2888755D+00 0.1005682D+00 0.1005682D+00 0.1005682D+00 0.2703238D+05
EXPONENTS  0.4052387D+04 0.9223272D+03 0.2612407D+03 0.8535464D+02 0.3103504D+02
EXPONENTS  0.1226086D+02 0.4998708D+01 0.1170311D+01 0.4647474D+00 0.1850454D+00
EXPONENTS  0.6327495D+02 0.1462705D+02 0.4450122D+01 0.1527580D+01 0.6327495D+02
EXPONENTS  0.1462705D+02 0.4450122D+01 0.1527580D+01 0.6327495D+02 0.1462705D+02
EXPONENTS  0.4450122D+01 0.1527580D+01 0.5293512D+00 0.5293512D+00 0.5293512D+00
EXPONENTS  0.1747842D+00 0.1747842D+00 0.1747842D+00 0.1357535D+05 0.2035233D+04
EXPONENTS  0.4632256D+03 0.1312002D+03 0.4285302D+02 0.1558419D+02 0.6206714D+01
EXPONENTS  0.2576490D+01 0.5769634D+00 0.2297283D+00 0.9516444D-01 0.3469723D+02
EXPONENTS  0.7958262D+01 0.2378083D+01 0.8143321D+00 0.3469723D+02 0.7958262D+01
EXPONENTS  0.2378083D+01 0.8143321D+00 0.3469723D+02 0.7958262D+01 0.2378083D+01
EXPONENTS  0.8143321D+00 0.2888755D+00 0.2888755D+00 0.2888755D+00 0.1005682D+00
EXPONENTS  0.1005682D+00 0.1005682D+00 0.1357535D+05 0.2035233D+04 0.4632256D+03
EXPONENTS  0.1312002D+03 0.4285302D+02 0.1558419D+02 0.6206714D+01 0.2576490D+01
EXPONENTS  0.5769634D+00 0.2297283D+00 0.9516444D-01 0.3469723D+02 0.7958262D+01
EXPONENTS  0.2378083D+01 0.8143321D+00 0.3469723D+02 0.7958262D+01 0.2378083D+01
EXPONENTS  0.8143321D+00 0.3469723D+02 0.7958262D+01 0.2378083D+01 0.8143321D+00
EXPONENTS  0.2888755D+00 0.2888755D+00 0.2888755D+00 0.1005682D+00 0.1005682D+00
EXPONENTS  0.1005682D+00 0.1357535D+05 0.2035233D+04 0.4632256D+03 0.1312002D+03
EXPONENTS  0.4285302D+02 0.1558419D+02 0.6206714D+01 0.2576490D+01 0.5769634D+00
EXPONENTS  0.2297283D+00 0.9516444D-01 0.3469723D+02 0.7958262D+01 0.2378083D+01
EXPONENTS  0.8143321D+00 0.3469723D+02 0.7958262D+01 0.2378083D+01 0.8143321D+00
EXPONENTS  0.3469723D+02 0.7958262D+01 0.2378083D+01 0.8143321D+00 0.2888755D+00
EXPONENTS  0.2888755D+00 0.2888755D+00 0.1005682D+00 0.1005682D+00 0.1005682D+00
EXPONENTS  0.3406134D+02 0.5123575D+01 0.1164663D+01 0.3272304D+00 0.1030724D+00
EXPONENTS  0.3406134D+02 0.5123575D+01 0.1164663D+01 0.3272304D+00 0.1030724D+00
EXPONENTS  0.3406134D+02 0.5123575D+01 0.1164663D+01 0.3272304D+00 0.1030724D+00
EXPONENTS  0.3406134D+02 0.5123575D+01 0.1164663D+01 0.3272304D+00 0.1030724D+00
EXPONENTS  0.3406134D+02 0.5123575D+01 0.1164663D+01 0.3272304D+00 0.1030724D+00
EXPONENTS  0.3406134D+02 0.5123575D+01 0.1164663D+01 0.3272304D+00 0.1030724D+00
EXPONENTS  0.3406134D+02 0.5123575D+01 0.1164663D+01 0.3272304D+00 0.1030724D+00
EXPONENTS  0.3406134D+02 0.5123575D+01 0.1164663D+01 0.3272304D+00 0.1030724D+00
MO    1     MO 0.0        OCC NO =    2.0000000  ORB. ENERGY =  -18.744076
  0.95560167D-05  0.17835294D-04  0.30440080D-04  0.47306923D-04  0.63364280D-04
  0.65088840D-04 -0.15880023D-03 -0.47057108D-04 -0.10377396D-03  0.19958865D-03
 -0.16956958D-02  0.45644849D-03  0.48719713D-03  0.42665722D-03  0.26942871D-03
  0.14109166D-05  0.15059630D-05  0.13188295D-05  0.83282442D-06  0.76445211D-04
  0.81594941D-04  0.71455820D-04  0.45123460D-04 -0.17143494D-03 -0.67793315D-05
 -0.27450675D-04 -0.13083626D-03 -0.20978871D-03  0.67778622D-06  0.37430805D+00
  0.69890940D+00  0.11953182D+01  0.18713122D+01  0.25595427D+01  0.27496146D+01
  0.19046528D+01  0.60180134D+00  0.29430932D-01 -0.10474536D-01  0.42175006D-02
 -0.36150267D-02 -0.40020257D-02 -0.34852213D-02 -0.20241716D-02  0.49190346D-02
  0.54456313D-02  0.47424059D-02  0.27543282D-02 -0.17215398D-03 -0.19058355D-03
 -0.16597241D-03 -0.96394637D-04  0.66480776D-03 -0.90450950D-03  0.31453204D-04
 -0.35174433D-03  0.47885621D-03 -0.16683884D-04  0.95761306D-05  0.17872834D-04
  0.30504151D-04  0.47406497D-04  0.63497652D-04  0.65225842D-04 -0.15916259D-03
 -0.47164486D-04 -0.10288274D-03  0.19809011D-03 -0.16992034D-02 -0.13580429D-03
 -0.14495275D-03 -0.12694068D-03 -0.80161458D-04 -0.43840582D-03 -0.46793901D-03
 -0.40979215D-03 -0.25877863D-03 -0.62005549D-04 -0.66182551D-04 -0.57958599D-04
 -0.36600133D-04  0.57367266D-04  0.16241397D-03  0.22867249D-04  0.23928669D-03
  0.62217352D-04  0.40920815D-05  0.36259875D-05  0.67675220D-05  0.11550351D-04
  0.17950399D-04  0.24043291D-04  0.24697667D-04 -0.63445065D-04 -0.18800610D-04
  0.19736787D-03 -0.29840171D-03  0.88049162D-03 -0.10544921D-03 -0.11255280D-03
 -0.98566802D-04 -0.62243706D-04 -0.15464396D-03 -0.16506154D-03 -0.14455073D-03
 -0.91281982D-04 -0.78053406D-04 -0.83311471D-04 -0.72959052D-04 -0.46072731D-04
  0.50731379D-04  0.15136842D-03  0.78210052D-04  0.11613195D-03 -0.21400941D-03
 -0.75316018D-05  0.36006234D-05  0.67201826D-05  0.11469555D-04  0.17824834D-04
  0.23875106D-04  0.24524905D-04 -0.63030387D-04 -0.18677729D-04  0.19674900D-03
 -0.29601459D-03  0.86744721D-03  0.17690787D-03  0.18882526D-03  0.16536153D-03
  0.10442374D-03  0.57982662D-04  0.61888663D-04  0.54198276D-04  0.34225536D-04
  0.81322406D-04  0.86800687D-04  0.76014692D-04  0.48002330D-04 -0.15763507D-03
 -0.65726816D-05 -0.82993843D-04  0.16698859D-03 -0.17399567D-03  0.19865443D-04
 -0.15996962D-04 -0.28871260D-04 -0.42623628D-04  0.11395023D-03  0.26991247D-03
 -0.97477945D-05 -0.17592785D-04 -0.25972830D-04  0.49647387D-04  0.14732545D-03
 -0.16062063D-04 -0.28988754D-04 -0.42797088D-04  0.11366248D-03  0.26985577D-03
 -0.97240825D-05 -0.17549990D-04 -0.25909650D-04  0.50099016D-04  0.14815745D-03
 -0.20691464D-05 -0.37343880D-05 -0.55132047D-05 -0.79850339D-04  0.61406197D-04
  0.14091225D-04  0.25431793D-04  0.37545825D-04 -0.31842045D-04 -0.79160872D-04
  0.13967471D-04  0.25208443D-04  0.37216086D-04 -0.30205229D-04 -0.77507162D-04
 -0.21835353D-05 -0.39408368D-05 -0.58179922D-05 -0.79288950D-04  0.61497624D-04
MO    2     MO 0.0        OCC NO =    2.0000000  ORB. ENERGY =   -9.930105
  0.24836484D+00  0.46354670D+00  0.79115031D+00  0.12295266D+01  0.16468639D+01
  0.16916860D+01  0.10932771D+01  0.32396967D+00  0.19644205D-01 -0.93645667D-02
  0.47747603D-02  0.10458162D-02  0.11162676D-02  0.97755833D-03  0.61731589D-03
  0.51830727D-03  0.55322302D-03  0.48447863D-03  0.30594221D-03  0.18114716D-03
  0.19335014D-03  0.16932413D-03  0.10692608D-03 -0.23421492D-03 -0.43133494D-03
 -0.86647567D-04 -0.13636699D-03  0.24447299D-03 -0.26295029D-04 -0.16582127D-05
 -0.30962210D-05 -0.52953491D-05 -0.82900535D-05 -0.11338966D-04 -0.12180999D-04
 -0.14044243D-03 -0.44374723D-04  0.29550855D-03 -0.26221817D-03  0.66973126D-03
 -0.42686059D-03 -0.47255725D-03 -0.41153323D-03 -0.23901320D-03  0.46878481D-04
  0.51896957D-04  0.45195207D-04  0.26248794D-04 -0.70777512D-04 -0.78354447D-04
 -0.68236090D-04 -0.39630642D-04 -0.25443831D-03 -0.22540866D-03 -0.31786304D-04
 -0.21202205D-03  0.29749459D-03  0.84627032D-05 -0.52440308D-01 -0.97874286D-01
 -0.16704525D+00 -0.25960499D+00 -0.34772254D+00 -0.35718636D+00 -0.23069887D+00
 -0.68362757D-01 -0.43713770D-02  0.22281991D-02 -0.25764293D-02  0.37444829D-03
  0.39967298D-03  0.35000897D-03  0.22102630D-03  0.20362435D-03  0.21734150D-03
  0.19033429D-03  0.12019373D-03  0.43300859D-04  0.46217820D-04  0.40474718D-04
  0.25559280D-04 -0.14800718D-03  0.10805552D-03  0.10193788D-04  0.42134225D-03
 -0.70249536D-04 -0.61254256D-05 -0.10643989D-03 -0.19865879D-03 -0.33905746D-03
 -0.52692914D-03 -0.70578434D-03 -0.72499338D-03 -0.39878480D-03 -0.11817149D-03
 -0.93685609D-04 -0.20154806D-03  0.10747790D-02 -0.30103897D-04 -0.32131845D-04
 -0.28139089D-04 -0.17769484D-04  0.29548728D-03  0.31539277D-03  0.27620155D-03
  0.17441784D-03  0.38477730D-04  0.41069781D-04  0.35966383D-04  0.22712322D-04
 -0.12281907D-04 -0.16032220D-04 -0.98007872D-04  0.27042944D-03 -0.33369935D-04
  0.15244704D-03  0.33683072D-03  0.62865890D-03  0.10729527D-02  0.16674756D-02
  0.22334658D-02  0.22942531D-02  0.17033050D-02  0.50473861D-03 -0.31975102D-03
  0.90776236D-03 -0.12608987D-02  0.11903414D-03  0.12705287D-03  0.11126507D-03
  0.70262507D-04  0.16350170D-04  0.17451599D-04  0.15283035D-04  0.96510460D-05
  0.29859204D-05  0.31870669D-05  0.27910367D-05  0.17625049D-05  0.93273445D-04
 -0.56609123D-03 -0.11635297D-03  0.70858908D-04  0.35909525D-03  0.11271124D-03
 -0.78172063D-04 -0.14108466D-03 -0.20828811D-03  0.75122096D-03 -0.10763892D-02
 -0.92782978D-04 -0.16745439D-03 -0.24721864D-03  0.77284287D-03 -0.93742692D-03
 -0.52662683D-05 -0.95045423D-05 -0.14031881D-04  0.58396532D-04  0.37547825D-03
  0.77489428D-05  0.13985264D-04  0.20646924D-04 -0.51150661D-05  0.15964128D-03
  0.13417894D-04  0.24216567D-04  0.35751747D-04 -0.13763613D-04 -0.22108003D-03
  0.24776131D-04  0.44715873D-04  0.66015572D-04 -0.92992752D-04  0.51517082D-04
 -0.19221774D-04 -0.34691390D-04 -0.51216085D-04 -0.15928876D-03 -0.18486182D-04
 -0.21596759D-04 -0.38977754D-04 -0.57544192D-04 -0.98309781D-04  0.14006787D-03
MO    3     MO 0.0        OCC NO =    2.0000000  ORB. ENERGY =   -9.930079
  0.52430885D-01  0.97856699D-01  0.16701523D+00  0.25955834D+00  0.34766005D+00
  0.35712217D+00  0.23094646D+00  0.68436126D-01  0.39022867D-02 -0.17021878D-02
 -0.70100476D-03  0.12925621D-03  0.13796355D-03  0.12081997D-03  0.76296308D-04
 -0.98160485D-04 -0.10477306D-03 -0.91753792D-04 -0.57941376D-04  0.36267879D-04
  0.38711063D-04  0.33900763D-04  0.21407909D-04 -0.16777529D-03 -0.58689678D-06
 -0.59732622D-04 -0.12560245D-03 -0.35449702D-03  0.15281817D-04 -0.25482570D-05
 -0.47581151D-05 -0.81376234D-05 -0.12739733D-04 -0.17425146D-04 -0.18719139D-04
 -0.21612003D-03 -0.68286107D-04  0.45523490D-03 -0.40479821D-03  0.10302849D-02
 -0.10081993D-03 -0.11161299D-03 -0.97199770D-04 -0.56452374D-04  0.48500776D-03
  0.53692923D-03  0.46759249D-03  0.27157169D-03  0.27679260D-04  0.30642404D-04
  0.26685375D-04  0.15498522D-04  0.20478132D-03  0.93112910D-04  0.23119269D-04
 -0.33447589D-03  0.44992994D-03 -0.28471390D-04  0.24836287D+00  0.46354302D+00
  0.79114403D+00  0.12295168D+01  0.16468509D+01  0.16916725D+01  0.10933292D+01
  0.32398509D+00  0.19545609D-01 -0.92546273D-02  0.40753660D-02 -0.71002553D-03
 -0.75785638D-03 -0.66368391D-03 -0.41910811D-03 -0.84097647D-03 -0.89762883D-03
 -0.78608800D-03 -0.49640477D-03 -0.16588521D-03 -0.17706007D-03 -0.15505829D-03
 -0.97917379D-04  0.45762233D-03  0.15599971D-03  0.11095691D-03 -0.23333084D-04
  0.19128549D-03  0.10254521D-04  0.32116148D-03  0.59941393D-03  0.10230394D-02
  0.15899053D-02  0.21295658D-02  0.21875253D-02  0.16853594D-02  0.49942080D-03
 -0.39054204D-03  0.90091324D-03 -0.88930435D-03 -0.68497683D-04 -0.73112027D-04
 -0.64027008D-04 -0.40432257D-04  0.11610998D-04  0.12393173D-04  0.10853177D-04
  0.68536458D-05  0.16554891D-04  0.17670111D-04  0.15474394D-04  0.97718869D-05
  0.55025314D-03 -0.28273510D-03  0.11236154D-03 -0.27428502D-03  0.19267635D-04
 -0.68556721D-04  0.32395449D-04  0.60462678D-04  0.10319363D-03  0.16037320D-03
  0.21480857D-03  0.22065493D-03  0.31642307D-03  0.93765320D-04 -0.24368101D-03
  0.18268722D-03  0.60432056D-03 -0.24413768D-03 -0.26058401D-03 -0.22820342D-03
 -0.14410761D-03  0.13295681D-03  0.14191344D-03  0.12427904D-03  0.78480667D-04
 -0.55078385D-04 -0.58788739D-04 -0.51483554D-04 -0.32511223D-04  0.58367999D-04
 -0.23856855D-03  0.55972574D-04 -0.19622115D-04 -0.13993709D-03 -0.10755158D-03
 -0.40406973D-04 -0.72926361D-04 -0.10766368D-03  0.39679468D-03 -0.63373409D-04
 -0.32346410D-04 -0.58378685D-04 -0.86186450D-04  0.33449711D-03 -0.24342580D-03
 -0.87954652D-04 -0.15874024D-03 -0.23435365D-03  0.84745393D-03 -0.10104275D-02
 -0.97847908D-04 -0.17659556D-03 -0.26071406D-03  0.84296139D-03 -0.95507655D-03
 -0.17585578D-04 -0.31738388D-04 -0.46856468D-04 -0.11439200D-03  0.56360748D-04
 -0.98069761D-05 -0.17699596D-04 -0.26130518D-04 -0.21690088D-03  0.19764742D-05
  0.18208904D-04  0.32863365D-04  0.48517310D-04 -0.16903927D-03  0.49978579D-04
  0.50930397D-05  0.91919000D-05  0.13570316D-04 -0.58183143D-04 -0.18060889D-03
MO    4     MO 0.0        OCC NO =    2.0000000  ORB. ENERGY =   -9.896843
 -0.21490308D-03 -0.40109386D-03 -0.68456002D-03 -0.10638746D-02 -0.14249848D-02
 -0.14637681D-02 -0.67370824D-03 -0.19963926D-03 -0.49579000D-03  0.94039590D-03
 -0.20937045D-02 -0.48145012D-04 -0.51388299D-04 -0.45002705D-04 -0.28418647D-04
 -0.14051837D-03 -0.14998439D-03 -0.13134708D-03 -0.82944044D-04  0.12081524D-03
  0.12895395D-03  0.11292992D-03  0.71313838D-04 -0.12676965D-03  0.36712471D-03
 -0.35414242D-04  0.10280357D-03 -0.48602221D-03  0.38632231D-04  0.20596218D-05
  0.38457336D-05  0.65772119D-05  0.10296854D-04  0.14083827D-04  0.15129693D-04
 -0.10663547D-03 -0.33692948D-04  0.38044381D-03 -0.69980329D-03  0.59880509D-03
 -0.88282406D-05 -0.97733291D-05 -0.85112433D-05 -0.49432204D-05  0.21619683D-04
  0.23934132D-04  0.20843381D-04  0.12105567D-04 -0.77655283D-05 -0.85968503D-05
 -0.74866900D-05 -0.43481730D-05  0.14849754D-03 -0.21986526D-03  0.15590860D-04
 -0.63007232D-04  0.88203482D-04 -0.10049354D-04 -0.25545132D-03 -0.47677286D-03
 -0.81372385D-03 -0.12646081D-02 -0.16938532D-02 -0.17399541D-02 -0.83846702D-03
 -0.24846206D-03 -0.52879929D-03  0.10560240D-02 -0.23838835D-02  0.11254574D-03
  0.12012738D-03  0.10520016D-03  0.66432589D-04  0.86348620D-05  0.92165492D-05
  0.80712858D-05  0.50969163D-05 -0.11299394D-03 -0.12060578D-03 -0.10561911D-03
 -0.66697149D-04 -0.35267239D-03  0.26251601D-03 -0.46587498D-05  0.46811366D-03
 -0.27885340D-03  0.33665900D-04  0.19214582D+00  0.35861985D+00  0.61206823D+00
  0.95121513D+00  0.12740854D+01  0.13087617D+01  0.84577040D+00  0.25062626D+00
  0.15424308D-01 -0.73727589D-02  0.49177322D-02 -0.68974259D-04 -0.73620708D-04
 -0.64472478D-04 -0.40713566D-04 -0.44851792D-03 -0.47873232D-03 -0.41924426D-03
 -0.26474752D-03  0.13154116D-03  0.14040243D-03  0.12295579D-03  0.77645050D-04
 -0.27299920D-03  0.16646668D-03 -0.34778496D-04  0.34386678D-03 -0.26728174D-03
 -0.48292642D-05  0.16584080D+00  0.30952431D+00  0.52827526D+00  0.82099249D+00
  0.10996614D+01  0.11295905D+01  0.73003367D+00  0.21633012D+00  0.13221784D-01
 -0.61292018D-02  0.37549224D-02  0.40786799D-03  0.43534400D-03  0.38124745D-03
  0.24075301D-03 -0.45217754D-04 -0.48263846D-04 -0.42266502D-04 -0.26690769D-04
 -0.11002045D-03 -0.11743197D-03 -0.10283968D-03 -0.64941977D-04  0.16499438D-04
  0.32565665D-03 -0.51919020D-05  0.40949831D-04 -0.41456405D-03  0.44759324D-04
 -0.16663418D-04 -0.30074077D-04 -0.44399388D-04 -0.45884878D-04  0.23973410D-03
 -0.12968328D-04 -0.23405192D-04 -0.34553885D-04 -0.86540387D-05 -0.77018004D-04
 -0.20531992D-04 -0.37056066D-04 -0.54707138D-04 -0.57327215D-04  0.21841822D-03
 -0.16309104D-04 -0.29434614D-04 -0.43455327D-04 -0.11372734D-04 -0.28875352D-04
 -0.57397552D-04 -0.10359090D-03 -0.15293479D-03  0.43040631D-03 -0.80617917D-03
 -0.42068553D-04 -0.75925174D-04 -0.11209093D-03  0.33976347D-03 -0.10460245D-02
 -0.43210443D-04 -0.77986054D-04 -0.11513348D-03  0.28022055D-03 -0.88524673D-03
 -0.53962112D-04 -0.97390628D-04 -0.14378112D-03  0.35898434D-03 -0.68270157D-03
MO    5     MO 0.0        OCC NO =    2.0000000  ORB. ENERGY =   -9.896760
 -0.29391569D-03 -0.54856254D-03 -0.93624964D-03 -0.14550254D-02 -0.19489037D-02
 -0.20019462D-02 -0.11785691D-02 -0.34924415D-03 -0.26447223D-03  0.86302844D-03
 -0.21365455D-02  0.13487120D-04  0.14395680D-04  0.12606849D-04  0.79610681D-05
  0.26320434D-03  0.28093509D-03  0.24602564D-03  0.15536212D-03 -0.24576257D-04
 -0.26231835D-04 -0.22972225D-04 -0.14506674D-04 -0.13469425D-03  0.35434382D-03
  0.12409458D-03  0.17584911D-03 -0.34414611D-03 -0.32210468D-03  0.14707926D-06
  0.27462694D-06  0.46968402D-06  0.73530669D-06  0.10057375D-05  0.10804236D-05
 -0.75256221D-05 -0.23778242D-05  0.27267314D-04 -0.50538353D-04  0.43122659D-04
 -0.63988812D-04 -0.70838998D-04 -0.61691154D-04 -0.35829427D-04 -0.42659140D-04
 -0.47225924D-04 -0.41127371D-04 -0.23886247D-04  0.10025428D-03  0.11098679D-03
  0.96654433D-04  0.56135649D-04  0.12981855D-03  0.68017702D-04 -0.11853165D-03
 -0.19621403D-04 -0.18326827D-05  0.99908777D-04  0.25935948D-03  0.48406703D-03
  0.82617303D-03  0.12839554D-02  0.17197675D-02  0.17665737D-02  0.10677786D-02
  0.31641372D-03  0.18901903D-03 -0.71539838D-03  0.18054546D-02  0.27498827D-03
  0.29351285D-03  0.25704046D-03  0.16231785D-03 -0.65516075D-04 -0.69929564D-04
 -0.61240002D-04 -0.38672298D-04 -0.30927599D-04 -0.33011036D-04 -0.28909031D-04
 -0.18255693D-04  0.24546571D-03 -0.19251220D-03  0.14304619D-03 -0.20072995D-03
  0.21751789D-03 -0.33987497D-03 -0.16586046D+00 -0.30956101D+00 -0.52833789D+00
 -0.82108984D+00 -0.10997918D+01 -0.11297244D+01 -0.72972483D+00 -0.21623860D+00
 -0.13939931D-01  0.79726820D-02 -0.75990295D-02 -0.92153648D-04 -0.98361576D-04
 -0.86139006D-04 -0.54395708D-04  0.31480584D-03  0.33601273D-03  0.29425924D-03
  0.18582104D-03 -0.45907577D-04 -0.49000140D-04 -0.42911302D-04 -0.27097952D-04
 -0.31241530D-03 -0.57555309D-03  0.18589830D-03  0.30398499D-03  0.69167960D-03
 -0.14899296D-03  0.19216275D+00  0.35865144D+00  0.61212214D+00  0.95129892D+00
  0.12741977D+01  0.13088770D+01  0.84550359D+00  0.25054720D+00  0.16044889D-01
 -0.89651562D-02  0.82372879D-02  0.33799733D-03  0.36076652D-03  0.31593708D-03
  0.19951033D-03 -0.19183321D-03 -0.20475605D-03 -0.17931273D-03 -0.11323375D-03
 -0.47143020D-04 -0.50318808D-04 -0.44066111D-04 -0.27827200D-04 -0.65272721D-03
 -0.72704228D-04  0.17267951D-03  0.76907317D-03  0.17844799D-04 -0.12497945D-03
 -0.27175220D-04 -0.49045741D-04 -0.72407905D-04 -0.88783975D-04 -0.13407104D-03
 -0.23734850D-04 -0.42836573D-04 -0.63241098D-04 -0.18611532D-04  0.32238398D-03
  0.24299511D-04  0.43855671D-04  0.64745627D-04  0.82051478D-04  0.16818800D-03
  0.21526383D-04  0.38850739D-04  0.57356675D-04  0.17395868D-04 -0.32930427D-03
  0.19361055D-04  0.34942764D-04  0.51587197D-04 -0.45806951D-03  0.78241689D-03
 -0.11156942D-04 -0.20136010D-04 -0.29727480D-04 -0.38135450D-03  0.10216796D-02
  0.48951290D-05  0.88347115D-05  0.13042987D-04  0.42686160D-03 -0.11632798D-02
 -0.27531492D-04 -0.49688739D-04 -0.73357185D-04  0.51578346D-03 -0.89217415D-03
MO    6     MO 0.0        OCC NO =    2.0000000  ORB. ENERGY =   -0.924947
 -0.18743008D-01 -0.34981842D-01 -0.59704653D-01 -0.92786992D-01 -0.12428162D+00
 -0.12766414D+00 -0.13250528D+00 -0.39265152D-01  0.50508159D-01  0.32610318D-01
  0.29684194D-02  0.87745536D-01  0.93656511D-01  0.82018600D-01  0.51793723D-01
  0.16155652D-01  0.17243977D-01  0.15101213D-01  0.95362275D-02  0.12995319D-01
  0.13870748D-01  0.12147146D-01  0.76707715D-02  0.13603962D-01  0.45037654D-02
  0.14912065D-02 -0.22106933D-03  0.10647592D-02 -0.35598493D-03 -0.74768801D-01
 -0.13960859D+00 -0.23876726D+00 -0.37379846D+00 -0.51127390D+00 -0.54924115D+00
 -0.60300849D+00 -0.19052886D+00  0.22476672D+00  0.17517302D+00  0.17853548D-01
 -0.15564726D+00 -0.17230974D+00 -0.15005840D+00 -0.87151984D-01  0.21185083D+00
  0.23453007D+00  0.20424387D+00  0.11862220D+00 -0.73586923D-02 -0.81464614D-02
 -0.70944623D-02 -0.41203722D-02 -0.35134736D-01  0.47818735D-01 -0.16627676D-02
  0.12155906D-02 -0.16636328D-02  0.60626971D-04 -0.18748321D-01 -0.34991758D-01
 -0.59721578D-01 -0.92813294D-01 -0.12431685D+00 -0.12770033D+00 -0.13254286D+00
 -0.39276289D-01  0.50522557D-01  0.32624047D-01  0.30091210D-02 -0.41212367D-01
 -0.43988637D-01 -0.38522537D-01 -0.24326502D-01 -0.79516277D-01 -0.84872889D-01
 -0.74326445D-01 -0.46936224D-01 -0.10755451D-01 -0.11479992D-01 -0.10053470D-01
 -0.63486407D-02 -0.83098557D-02 -0.11708704D-01 -0.12381733D-02 -0.95913370D-03
  0.54445884D-03  0.29075196D-03 -0.72961869D-02 -0.13617561D-01 -0.23241537D-01
 -0.36119668D-01 -0.48379743D-01 -0.49696475D-01 -0.51297758D-01 -0.15201012D-01
  0.19669165D-01  0.93211093D-02 -0.30920505D-02  0.81768489D-02  0.87276821D-02
  0.76431661D-02  0.48265641D-02 -0.27872452D-01 -0.29750079D-01 -0.26053285D-01
 -0.16452325D-01  0.75179305D-02  0.80243756D-02  0.70272536D-02  0.44376230D-02
 -0.58139024D-03 -0.46594702D-02 -0.79037324D-03 -0.51240088D-03  0.25165167D-03
 -0.72444556D-03 -0.72984357D-02 -0.13621758D-01 -0.23248700D-01 -0.36130801D-01
 -0.48394655D-01 -0.49711792D-01 -0.51312832D-01 -0.15205478D-01  0.19671291D-01
  0.93168097D-02 -0.30189430D-02  0.24385586D-01  0.26028320D-01  0.22793999D-01
  0.14394126D-01 -0.16393745D-01 -0.17498109D-01 -0.15323765D-01 -0.96767667D-02
 -0.61071835D-02 -0.65185937D-02 -0.57085826D-02 -0.36048987D-02  0.46026886D-02
 -0.79486796D-03  0.96903645D-03 -0.90973642D-04  0.58274680D-03  0.70216401D-03
  0.37782794D-02  0.68190253D-02  0.10067160D-01  0.15626022D-03  0.23853599D-03
  0.36559717D-02  0.65982847D-02  0.97412734D-02  0.15700135D-02  0.85854221D-03
  0.37790102D-02  0.68203441D-02  0.10069107D-01  0.16443421D-03  0.24406110D-03
  0.36573196D-02  0.66007175D-02  0.97448650D-02  0.15561707D-02  0.84412028D-03
  0.10659594D-02  0.19238398D-02  0.28402304D-02  0.28995121D-02  0.26883485D-03
  0.16399750D-02  0.29598210D-02  0.43696850D-02  0.67143424D-03  0.19394048D-03
  0.16424746D-02  0.29643324D-02  0.43763452D-02  0.65766988D-03  0.18760556D-03
  0.10658759D-02  0.19236890D-02  0.28400079D-02  0.29022482D-02  0.27622955D-03
MO    7     MO 0.0        OCC NO =    2.0000000  ORB. ENERGY =   -0.718073
 -0.10808946D-01 -0.20173754D-01 -0.34431205D-01 -0.53509531D-01 -0.71672234D-01
 -0.73622909D-01 -0.77309423D-01 -0.22909021D-01  0.31596789D-01  0.15300429D-01
  0.22908057D-02 -0.69246677D-01 -0.73911478D-01 -0.64727117D-01 -0.40874367D-01
  0.72268782D-01  0.77137166D-01  0.67551976D-01  0.42658231D-01  0.41099226D-02
  0.43867874D-02  0.38416780D-02  0.24259718D-02 -0.81026376D-02  0.10054554D-01
 -0.66062590D-03 -0.64931637D-03  0.66763360D-03 -0.16777250D-03  0.31796456D-01
  0.59370463D-01  0.10153904D+00  0.15896291D+00  0.21742622D+00  0.23357232D+00
  0.25765342D+00  0.81409155D-01 -0.98207034D-01 -0.78836458D-01 -0.14709580D-01
  0.21574107D-02  0.23883677D-02  0.20799442D-02  0.12080048D-02 -0.33438481D-02
 -0.37018166D-02 -0.32237799D-02 -0.18723298D-02  0.22439336D-03  0.24841532D-03
  0.21633603D-03  0.12564518D-03  0.47031266D-02 -0.64706229D-02  0.24826004D-03
 -0.33035769D-03  0.44950095D-03 -0.14561893D-04 -0.10768311D-01 -0.20097912D-01
 -0.34301764D-01 -0.53308367D-01 -0.71402789D-01 -0.73346130D-01 -0.77018516D-01
 -0.22822817D-01  0.31479152D-01  0.15231296D-01  0.22772135D-02 -0.48128581D-01
 -0.51370761D-01 -0.44987347D-01 -0.28408949D-01  0.87358842D-01  0.93243768D-01
  0.81657145D-01  0.51565469D-01 -0.93129095D-02 -0.99402733D-02 -0.87050787D-02
 -0.54971487D-02 -0.71854464D-02  0.10745084D-01 -0.26976406D-04 -0.44477701D-03
  0.82570013D-03  0.12234165D-03 -0.35716946D-01 -0.66661900D-01 -0.11377405D+00
 -0.17681623D+00 -0.23683284D+00 -0.24327862D+00 -0.25480788D+00 -0.75506956D-01
  0.98165479D-01  0.63636163D-01 -0.15307751D-02 -0.29321889D-01 -0.31297158D-01
 -0.27408122D-01 -0.17307887D-01 -0.40176850D-01 -0.42883363D-01 -0.37554606D-01
 -0.23715265D-01  0.20037641D-01  0.21387476D-01  0.18729833D-01  0.11827656D-01
 -0.26599685D-02 -0.70004639D-02  0.20638144D-02 -0.58653949D-03 -0.19910111D-03
 -0.40250585D-04 -0.35729576D-01 -0.66685474D-01 -0.11381428D+00 -0.17687875D+00
 -0.23691659D+00 -0.24336465D+00 -0.25489883D+00 -0.75533906D-01  0.98203393D-01
  0.63654694D-01 -0.15505387D-02  0.47671791D-01  0.50883200D-01  0.44560370D-01
  0.28139318D-01  0.15144695D-01  0.16164917D-01  0.14156238D-01  0.89394880D-02
 -0.19321288D-01 -0.20622866D-01 -0.18060235D-01 -0.11404813D-01  0.75293832D-02
  0.36577712D-03 -0.18681649D-02  0.35724684D-03  0.50265019D-03  0.31084548D-04
  0.37974820D-02  0.68536820D-02  0.10118325D-01  0.39509814D-02  0.95932036D-04
  0.29236631D-02  0.52766168D-02  0.77900498D-02  0.46424632D-02  0.17520372D-03
  0.37777895D-02  0.68181410D-02  0.10065855D-01  0.39384202D-02  0.89974286D-04
  0.29129655D-02  0.52573098D-02  0.77615463D-02  0.46278864D-02  0.17586951D-03
  0.12007094D-01  0.21670360D-01  0.31992694D-01  0.11646743D-01  0.23064496D-02
  0.12124715D-01  0.21882642D-01  0.32306093D-01  0.10297379D-01  0.25966792D-02
  0.12124360D-01  0.21882001D-01  0.32305147D-01  0.10298584D-01  0.25962512D-02
  0.12013099D-01  0.21681198D-01  0.32008694D-01  0.11650078D-01  0.23050652D-02
MO    8     MO 0.0        OCC NO =    2.0000000  ORB. ENERGY =   -0.669566
  0.34388760D-01  0.64182983D-01  0.10954320D+00  0.17024106D+00  0.22802587D+00
  0.23423196D+00  0.24647360D+00  0.73037267D-01 -0.97612500D-01 -0.66994829D-01
 -0.11910733D-02  0.10309536D-01  0.11004038D-01  0.96366580D-02  0.60854294D-02
 -0.50430522D-02 -0.53827772D-02 -0.47139045D-02 -0.29767719D-02 -0.79742285D-02
 -0.85114122D-02 -0.74537702D-02 -0.47069629D-02 -0.27193342D-03  0.29479717D-03
 -0.14464212D-02 -0.24321419D-03  0.47816199D-03 -0.48223198D-03  0.17284053D-04
  0.32272849D-04  0.55195027D-04  0.86409737D-04  0.11818947D-03  0.12696623D-03
  0.14032806D-03  0.44338587D-04 -0.54288022D-04 -0.41041109D-04 -0.13599202D-04
  0.28827831D+00  0.31913933D+00  0.27792704D+00  0.16141644D+00  0.21335548D+00
  0.23619580D+00  0.20569448D+00  0.11946470D+00  0.40474914D-01  0.44807870D-01
  0.39021574D-01  0.22663227D-01  0.48414482D-01  0.35818754D-01  0.65675034D-02
 -0.25670126D-03 -0.18894817D-03  0.70269499D-04 -0.34396378D-01 -0.64197201D-01
 -0.10956746D+00 -0.17027878D+00 -0.22807638D+00 -0.23428385D+00 -0.24652812D+00
 -0.73053421D-01  0.97633171D-01  0.67010890D-01  0.11913512D-02 -0.15523587D-02
 -0.16569333D-02 -0.14510401D-02 -0.91631371D-03  0.11068884D-01  0.11814539D-01
  0.10346445D-01  0.65336511D-02 -0.83885320D-02 -0.89536252D-02 -0.78410331D-02
 -0.49515146D-02  0.23637375D-03 -0.40003511D-03 -0.14017647D-02  0.39354335D-03
 -0.39369940D-03 -0.44940100D-03 -0.18469203D-01 -0.34470814D-01 -0.58832466D-01
 -0.91431526D-01 -0.12246607D+00 -0.12579918D+00 -0.13210710D+00 -0.39147160D-01
  0.50990006D-01  0.34979590D-01 -0.16623016D-02  0.82741764D-01  0.88315660D-01
  0.77341412D-01  0.48840137D-01  0.61962450D-03  0.66136548D-03  0.57918313D-03
  0.36574692D-03  0.79969544D-02  0.85356689D-02  0.74750128D-02  0.47203774D-02
  0.96756821D-02  0.68642269D-03  0.14363029D-02  0.13518208D-02  0.61230241D-03
  0.32097222D-03  0.18431816D-01  0.34401033D-01  0.58713369D-01  0.91246437D-01
  0.12221815D+00  0.12554452D+00  0.13184076D+00  0.39068235D-01 -0.50891579D-01
 -0.34898695D-01  0.16589388D-02  0.25016204D-01  0.26701419D-01  0.23383457D-01
  0.14766362D-01  0.79143242D-01  0.84474724D-01  0.73977757D-01  0.46716031D-01
  0.55143931D-02  0.58858700D-02  0.51544822D-02  0.32549913D-02  0.34970480D-02
  0.90905709D-02  0.11739480D-02  0.97637810D-03  0.11218684D-02  0.31016158D-03
 -0.13180887D-01 -0.23788818D-01 -0.35120246D-01 -0.11788372D-01 -0.26144874D-02
 -0.14028263D-01 -0.25318159D-01 -0.37378064D-01 -0.12034642D-01 -0.18236928D-02
  0.13190285D-01  0.23805780D-01  0.35145286D-01  0.11794253D-01  0.26148806D-02
  0.14024177D-01  0.25310784D-01  0.37367177D-01  0.12035101D-01  0.18285068D-02
  0.78257216D-02  0.14123835D-01  0.20851500D-01  0.68065303D-02  0.10610877D-02