 xx
GAUSSIAN             40 MOL ORBITALS    317 PRIMITIVES       19 NUCLEI
  Ti   1    (CENTRE  1)  -3.14896964  0.92499437 -0.07774859  CHARGE = 22.0
  O    2    (CENTRE  2)   0.86287599  1.29984863 -0.27055248  CHARGE =  8.0
  H    3    (CENTRE  3)   2.09501780  0.34988790  0.73443262  CHARGE =  1.0
  O    4    (CENTRE  4)  -3.53594352  1.19032995  3.92816790  CHARGE =  8.0
  H    5    (CENTRE  5)  -4.74994041  2.32360467  4.79347303  CHARGE =  1.0
  O    6    (CENTRE  6)  -3.34085662 -3.09309768 -0.38325226  CHARGE =  8.0
  H    7    (CENTRE  7)  -4.46266773 -4.00422818 -1.57406906  CHARGE =  1.0
  O    8    (CENTRE  8)  -7.16058274  0.54761272  0.11455513  CHARGE =  8.0
  H    9    (CENTRE  9)  -8.39245296  1.50127174 -0.88725385  CHARGE =  1.0
  O   10    (CENTRE 10)  -2.76114976  0.66217691 -4.08444715  CHARGE =  8.0
  H   11    (CENTRE 11)  -3.73203425  1.62019737 -5.33751856  CHARGE =  1.0
  O   12    (CENTRE 12)  -2.95876834  4.94230917  0.22948995  CHARGE =  8.0
  H   13    (CENTRE 13)  -1.84160492  5.85209558  1.42581405  CHARGE =  1.0
  H   14    (CENTRE 14)   1.75344678  2.48844853 -1.41130399  CHARGE =  1.0
  H   15    (CENTRE 15)  -2.56616180  0.23175865  5.18164563  CHARGE =  1.0
  H   16    (CENTRE 16)  -3.93910924  6.15881691 -0.76532703  CHARGE =  1.0
  H   17    (CENTRE 17)  -1.54778950 -0.47119296 -4.95054271  CHARGE =  1.0
  H   18    (CENTRE 18)  -8.05131980 -0.64090504  1.25514987  CHARGE =  1.0
  H   19    (CENTRE 19)  -2.35558761 -4.30833444  0.60824268  CHARGE =  1.0
CENTRE ASSIGNMENTS    1  1  1  1  1  1  1  1  1  1  1  1  1  1  1  1  1  1  1  1
CENTRE ASSIGNMENTS    1  1  1  1  1  1  1  1  1  1  1  1  1  1  1  1  1  1  1  1
CENTRE ASSIGNMENTS    1  1  1  1  1  1  1  1  1  1  1  1  1  1  1  1  1  1  1  1
CENTRE ASSIGNMENTS    1  1  1  1  1  1  1  1  1  1  1  1  1  1  1  1  1  1  1  1
CENTRE ASSIGNMENTS    1  1  1  2  2  2  2  2  2  2  2  2  2  2  2  2  2  2  2  2
CENTRE ASSIGNMENTS    2  2  2  2  2  2  2  2  2  2  2  2  3  3  3  3  3  4  4  4
CENTRE ASSIGNMENTS    4  4  4  4  4  4  4  4  4  4  4  4  4  4  4  4  4  4  4  4
CENTRE ASSIGNMENTS    4  4  4  4  4  4  5  5  5  5  5  6  6  6  6  6  6  6  6  6
CENTRE ASSIGNMENTS    6  6  6  6  6  6  6  6  6  6  6  6  6  6  6  6  6  6  6  6
CENTRE ASSIGNMENTS    7  7  7  7  7  8  8  8  8  8  8  8  8  8  8  8  8  8  8  8
CENTRE ASSIGNMENTS    8  8  8  8  8  8  8  8  8  8  8  8  8  8  9  9  9  9  9 10
CENTRE ASSIGNMENTS   10 10 10 10 10 10 10 10 10 10 10 10 10 10 10 10 10 10 10 10
CENTRE ASSIGNMENTS   10 10 10 10 10 10 10 10 11 11 11 11 11 12 12 12 12 12 12 12
CENTRE ASSIGNMENTS   12 12 12 12 12 12 12 12 12 12 12 12 12 12 12 12 12 12 12 12
CENTRE ASSIGNMENTS   12 12 13 13 13 13 13 14 14 14 14 14 15 15 15 15 15 16 16 16
CENTRE ASSIGNMENTS   16 16 17 17 17 17 17 18 18 18 18 18 19 19 19 19 19
TYPE ASSIGNMENTS      1  1  1  1  1  1  1  1  1  1  1  1  1  1  1  1  1  2  2  2
TYPE ASSIGNMENTS      2  2  2  3  3  3  3  3  3  4  4  4  4  4  4  2  2  2  3  3
TYPE ASSIGNMENTS      3  4  4  4  2  3  4  5  5  5  5  6  6  6  6  7  7  7  7  8
TYPE ASSIGNMENTS      8  8  8  9  9  9  9 10 10 10 10  5  6  7  8  9 10  5  6  7
TYPE ASSIGNMENTS      8  9 10  1  1  1  1  1  1  1  1  1  1  1  2  2  2  2  3  3
TYPE ASSIGNMENTS      3  3  4  4  4  4  2  3  4  2  3  4  1  1  1  1  1  1  1  1
TYPE ASSIGNMENTS      1  1  1  1  1  1  1  1  2  2  2  2  3  3  3  3  4  4  4  4
TYPE ASSIGNMENTS      2  3  4  2  3  4  1  1  1  1  1  1  1  1  1  1  1  1  1  1
TYPE ASSIGNMENTS      1  1  2  2  2  2  3  3  3  3  4  4  4  4  2  3  4  2  3  4
TYPE ASSIGNMENTS      1  1  1  1  1  1  1  1  1  1  1  1  1  1  1  1  2  2  2  2
TYPE ASSIGNMENTS      3  3  3  3  4  4  4  4  2  3  4  2  3  4  1  1  1  1  1  1
TYPE ASSIGNMENTS      1  1  1  1  1  1  1  1  1  1  2  2  2  2  3  3  3  3  4  4
TYPE ASSIGNMENTS      4  4  2  3  4  2  3  4  1  1  1  1  1  1  1  1  1  1  1  1
TYPE ASSIGNMENTS      1  1  1  1  2  2  2  2  3  3  3  3  4  4  4  4  2  3  4  2
TYPE ASSIGNMENTS      3  4  1  1  1  1  1  1  1  1  1  1  1  1  1  1  1  1  1  1
TYPE ASSIGNMENTS      1  1  1  1  1  1  1  1  1  1  1  1  1  1  1  1  1
EXPONENTS  0.2115757D+06 0.3171495D+05 0.7217548D+04 0.2042939D+04 0.6651290D+03
EXPONENTS  0.2387494D+03 0.9250869D+02 0.3640392D+02 0.2327262D+03 0.7179121D+02
EXPONENTS  0.1115853D+02 0.4654814D+01 0.6803463D+01 0.1120108D+01 0.4808012D+00
EXPONENTS  0.8515727D-01 0.3265748D-01 0.1063147D+04 0.2515651D+03 0.8040855D+02
EXPONENTS  0.2976819D+02 0.1173683D+02 0.4714238D+01 0.1063147D+04 0.2515651D+03
EXPONENTS  0.8040855D+02 0.2976819D+02 0.1173683D+02 0.4714238D+01 0.1063147D+04
EXPONENTS  0.2515651D+03 0.8040855D+02 0.2976819D+02 0.1173683D+02 0.4714238D+01
EXPONENTS  0.1779680D+02 0.2427270D+01 0.9682345D+00 0.1779680D+02 0.2427270D+01
EXPONENTS  0.9682345D+00 0.1779680D+02 0.2427270D+01 0.9682345D+00 0.3705669D+00
EXPONENTS  0.3705669D+00 0.3705669D+00 0.3771338D+02 0.1069293D+02 0.3672845D+01
EXPONENTS  0.1358859D+01 0.3771338D+02 0.1069293D+02 0.3672845D+01 0.1358859D+01
EXPONENTS  0.3771338D+02 0.1069293D+02 0.3672845D+01 0.1358859D+01 0.3771338D+02
EXPONENTS  0.1069293D+02 0.3672845D+01 0.1358859D+01 0.3771338D+02 0.1069293D+02
EXPONENTS  0.3672845D+01 0.1358859D+01 0.3771338D+02 0.1069293D+02 0.3672845D+01
EXPONENTS  0.1358859D+01 0.4921330D+00 0.4921330D+00 0.4921330D+00 0.4921330D+00
EXPONENTS  0.4921330D+00 0.4921330D+00 0.1633052D+00 0.1633052D+00 0.1633052D+00
EXPONENTS  0.1633052D+00 0.1633052D+00 0.1633052D+00 0.2703238D+05 0.4052387D+04
EXPONENTS  0.9223272D+03 0.2612407D+03 0.8535464D+02 0.3103504D+02 0.1226086D+02
EXPONENTS  0.4998708D+01 0.1170311D+01 0.4647474D+00 0.1850454D+00 0.6327495D+02
EXPONENTS  0.1462705D+02 0.4450122D+01 0.1527580D+01 0.6327495D+02 0.1462705D+02
EXPONENTS  0.4450122D+01 0.1527580D+01 0.6327495D+02 0.1462705D+02 0.4450122D+01
EXPONENTS  0.1527580D+01 0.5293512D+00 0.5293512D+00 0.5293512D+00 0.1747842D+00
EXPONENTS  0.1747842D+00 0.1747842D+00 0.3406134D+02 0.5123575D+01 0.1164663D+01
EXPONENTS  0.3272304D+00 0.1030724D+00 0.2703238D+05 0.4052387D+04 0.9223272D+03
EXPONENTS  0.2612407D+03 0.8535464D+02 0.3103504D+02 0.1226086D+02 0.4998708D+01
EXPONENTS  0.1170311D+01 0.4647474D+00 0.1850454D+00 0.6327495D+02 0.1462705D+02
EXPONENTS  0.4450122D+01 0.1527580D+01 0.6327495D+02 0.1462705D+02 0.4450122D+01
EXPONENTS  0.1527580D+01 0.6327495D+02 0.1462705D+02 0.4450122D+01 0.1527580D+01
EXPONENTS  0.5293512D+00 0.5293512D+00 0.5293512D+00 0.1747842D+00 0.1747842D+00
EXPONENTS  0.1747842D+00 0.3406134D+02 0.5123575D+01 0.1164663D+01 0.3272304D+00
EXPONENTS  0.1030724D+00 0.2703238D+05 0.4052387D+04 0.9223272D+03 0.2612407D+03
EXPONENTS  0.8535464D+02 0.3103504D+02 0.1226086D+02 0.4998708D+01 0.1170311D+01
EXPONENTS  0.4647474D+00 0.1850454D+00 0.6327495D+02 0.1462705D+02 0.4450122D+01
EXPONENTS  0.1527580D+01 0.6327495D+02 0.1462705D+02 0.4450122D+01 0.1527580D+01
EXPONENTS  0.6327495D+02 0.1462705D+02 0.4450122D+01 0.1527580D+01 0.5293512D+00
EXPONENTS  0.5293512D+00 0.5293512D+00 0.1747842D+00 0.1747842D+00 0.1747842D+00
EXPONENTS  0.3406134D+02 0.5123575D+01 0.1164663D+01 0.3272304D+00 0.1030724D+00
EXPONENTS  0.2703238D+05 0.4052387D+04 0.9223272D+03 0.2612407D+03 0.8535464D+02
EXPONENTS  0.3103504D+02 0.1226086D+02 0.4998708D+01 0.1170311D+01 0.4647474D+00
EXPONENTS  0.1850454D+00 0.6327495D+02 0.1462705D+02 0.4450122D+01 0.1527580D+01
EXPONENTS  0.6327495D+02 0.1462705D+02 0.4450122D+01 0.1527580D+01 0.6327495D+02
EXPONENTS  0.1462705D+02 0.4450122D+01 0.1527580D+01 0.5293512D+00 0.5293512D+00
EXPONENTS  0.5293512D+00 0.1747842D+00 0.1747842D+00 0.1747842D+00 0.3406134D+02
EXPONENTS  0.5123575D+01 0.1164663D+01 0.3272304D+00 0.1030724D+00 0.2703238D+05
EXPONENTS  0.4052387D+04 0.9223272D+03 0.2612407D+03 0.8535464D+02 0.3103504D+02
EXPONENTS  0.1226086D+02 0.4998708D+01 0.1170311D+01 0.4647474D+00 0.1850454D+00
EXPONENTS  0.6327495D+02 0.1462705D+02 0.4450122D+01 0.1527580D+01 0.6327495D+02
EXPONENTS  0.1462705D+02 0.4450122D+01 0.1527580D+01 0.6327495D+02 0.1462705D+02
EXPONENTS  0.4450122D+01 0.1527580D+01 0.5293512D+00 0.5293512D+00 0.5293512D+00
EXPONENTS  0.1747842D+00 0.1747842D+00 0.1747842D+00 0.3406134D+02 0.5123575D+01
EXPONENTS  0.1164663D+01 0.3272304D+00 0.1030724D+00 0.2703238D+05 0.4052387D+04
EXPONENTS  0.9223272D+03 0.2612407D+03 0.8535464D+02 0.3103504D+02 0.1226086D+02
EXPONENTS  0.4998708D+01 0.1170311D+01 0.4647474D+00 0.1850454D+00 0.6327495D+02
EXPONENTS  0.1462705D+02 0.4450122D+01 0.1527580D+01 0.6327495D+02 0.1462705D+02
EXPONENTS  0.4450122D+01 0.1527580D+01 0.6327495D+02 0.1462705D+02 0.4450122D+01
EXPONENTS  0.1527580D+01 0.5293512D+00 0.5293512D+00 0.5293512D+00 0.1747842D+00
EXPONENTS  0.1747842D+00 0.1747842D+00 0.3406134D+02 0.5123575D+01 0.1164663D+01
EXPONENTS  0.3272304D+00 0.1030724D+00 0.3406134D+02 0.5123575D+01 0.1164663D+01
EXPONENTS  0.3272304D+00 0.1030724D+00 0.3406134D+02 0.5123575D+01 0.1164663D+01
EXPONENTS  0.3272304D+00 0.1030724D+00 0.3406134D+02 0.5123575D+01 0.1164663D+01
EXPONENTS  0.3272304D+00 0.1030724D+00 0.3406134D+02 0.5123575D+01 0.1164663D+01
EXPONENTS  0.3272304D+00 0.1030724D+00 0.3406134D+02 0.5123575D+01 0.1164663D+01
EXPONENTS  0.3272304D+00 0.1030724D+00 0.3406134D+02 0.5123575D+01 0.1164663D+01
EXPONENTS  0.3272304D+00 0.1030724D+00
MO    1     MO 0.0        OCC NO =    2.0000000  ORB. ENERGY = -177.972542
  0.17240107D+01  0.32202197D+01  0.55156174D+01  0.86898184D+01  0.12146820D+02
  0.13295764D+02  0.92164371D+01  0.23425842D+01 -0.67503224D-02 -0.13170479D-01
  0.15682652D-01  0.80982059D-02  0.37399603D-02 -0.30288324D-02  0.13028424D-02
 -0.38693002D-03  0.34168500D-05  0.56078944D-07  0.74116545D-07  0.81966033D-07
  0.66492374D-07  0.32908026D-07  0.61576336D-08 -0.14181154D-06 -0.18742474D-06
 -0.20727440D-06 -0.16814486D-06 -0.83217294D-07 -0.15571326D-07 -0.21142015D-06
 -0.27942272D-06 -0.30901564D-06 -0.25067925D-06 -0.12406474D-06 -0.23214557D-07
  0.44410990D-08 -0.73507711D-08 -0.42088982D-08 -0.27082626D-07  0.44826333D-07
  0.25666623D-07 -0.32582810D-07  0.53930071D-07  0.30879234D-07  0.54039438D-08
 -0.38879230D-07 -0.43067189D-07 -0.39467932D-06 -0.25394826D-06 -0.12503484D-06
 -0.39724674D-07 -0.36182719D-05 -0.23281024D-05 -0.11462725D-05 -0.36418091D-06
  0.40129512D-05  0.25820507D-05  0.12713074D-05  0.40390558D-06 -0.19969038D-03
 -0.12848665D-03 -0.63262131D-04 -0.20098938D-04  0.20837641D-03  0.13407550D-03
  0.66013876D-04  0.20973192D-04 -0.20350148D-03 -0.13093883D-03 -0.64469492D-04
 -0.20482527D-04  0.37645784D-07  0.45660925D-06 -0.49425503D-06  0.24663155D-04
 -0.25714823D-04  0.25158218D-04 -0.15961522D-07 -0.30509108D-06  0.32105260D-06
 -0.16314207D-04  0.17009051D-04 -0.16643416D-04  0.43956886D-05  0.82076464D-05
  0.14037226D-04  0.21975766D-04  0.30058003D-04  0.32290113D-04 -0.47881273D-04
 -0.15128749D-04  0.77779096D-04 -0.14031111D-03  0.17008341D-03 -0.21767461D-04
 -0.24097730D-04 -0.20985853D-04 -0.12188313D-04 -0.21690019D-04 -0.24011997D-04
 -0.20911191D-04 -0.12144950D-04  0.20635900D-04  0.22845032D-04  0.19894923D-04
  0.11554715D-04  0.14617355D-04  0.14944891D-04 -0.14246311D-04 -0.61654759D-04
 -0.11043276D-04  0.82518123D-05  0.39134445D-05  0.70629708D-05  0.10427305D-04
 -0.24536380D-04  0.12407754D-04  0.43965238D-05  0.82092058D-05  0.14039892D-04
  0.21979941D-04  0.30063714D-04  0.32296248D-04 -0.47889431D-04 -0.15131327D-04
  0.77774284D-04 -0.14029283D-03  0.17014007D-03  0.22201930D-04  0.24578711D-04
  0.21404721D-04  0.12431586D-04 -0.20632545D-04 -0.22841319D-04 -0.19891689D-04
 -0.11552836D-04 -0.21340319D-04 -0.23624862D-04 -0.20574048D-04 -0.11949142D-04
 -0.15295400D-04  0.14241469D-04  0.14282244D-04  0.11381858D-04 -0.92990481D-05
 -0.61459360D-04 -0.22172857D-05 -0.40017493D-05 -0.59079194D-05 -0.28255921D-05
  0.81679072D-05  0.43973108D-05  0.82106753D-05  0.14042406D-04  0.21983875D-04
  0.30069096D-04  0.32302030D-04 -0.47899819D-04 -0.15134609D-04  0.77822454D-04
 -0.14039211D-03  0.17012759D-03  0.20183367D-04  0.22344054D-04  0.19458639D-04
  0.11301327D-04  0.22153167D-04  0.24524728D-04  0.21357709D-04  0.12404282D-04
  0.21647868D-04  0.23965334D-04  0.20870554D-04  0.12121349D-04 -0.13934345D-04
 -0.14914904D-04 -0.14923192D-04  0.81397932D-05  0.61871188D-04  0.10071531D-04
 -0.21968619D-05 -0.39648885D-05 -0.58535005D-05 -0.29088754D-05  0.81768304D-05
  0.43941938D-05  0.82048553D-05  0.14032452D-04  0.21968292D-04  0.30047782D-04
  0.32279133D-04 -0.47864531D-04 -0.15123459D-04  0.77746625D-04 -0.14025942D-03
  0.17005575D-03  0.21764289D-04  0.24094219D-04  0.20982795D-04  0.12186537D-04
  0.21754511D-04  0.24083394D-04  0.20973368D-04  0.12181062D-04 -0.20638380D-04
 -0.22847777D-04 -0.19897313D-04 -0.11556103D-04 -0.14605381D-04 -0.15001395D-04
  0.14240444D-04  0.61640836D-04  0.11164220D-04 -0.82613214D-05  0.39194682D-05
  0.70738423D-05  0.10443355D-04 -0.24618348D-04  0.12415528D-04  0.43978814D-05
  0.82117407D-05  0.14044228D-04  0.21986728D-04  0.30072997D-04  0.32306221D-04
 -0.47905568D-04 -0.15136426D-04  0.77822998D-04 -0.14038618D-03  0.17015494D-03
 -0.22204376D-04 -0.24581418D-04 -0.21407079D-04 -0.12432955D-04  0.20524556D-04
  0.22721769D-04  0.19787577D-04  0.11492370D-04  0.21343052D-04  0.23627887D-04
  0.20576683D-04  0.11950672D-04  0.15314030D-04 -0.14143976D-04 -0.14335659D-04
 -0.11389075D-04  0.91709527D-05  0.61499917D-04  0.39131503D-05  0.70624397D-05
  0.10426521D-04 -0.24547679D-04  0.12417774D-04  0.43986213D-05  0.82131223D-05
  0.14046591D-04  0.21990427D-04  0.30078057D-04  0.32311657D-04 -0.47913171D-04
 -0.15138828D-04  0.77824584D-04 -0.14037118D-03  0.17015409D-03 -0.20166575D-04
 -0.22325465D-04 -0.19442450D-04 -0.11291925D-04 -0.22166195D-04 -0.24539150D-04
 -0.21370269D-04 -0.12411577D-04 -0.21742923D-04 -0.24070565D-04 -0.20962196D-04
 -0.12174573D-04  0.13908902D-04  0.14880484D-04  0.15004421D-04 -0.80717569D-05
 -0.61844035D-04 -0.10155780D-04 -0.22072564D-05 -0.39836484D-05 -0.58811964D-05
 -0.28987330D-05  0.81770118D-05 -0.22066249D-05 -0.39825087D-05 -0.58795138D-05
 -0.28827986D-05  0.81618384D-05  0.39194987D-05  0.70738973D-05  0.10443437D-04
 -0.24603549D-04  0.12411422D-04  0.39143010D-05  0.70645165D-05  0.10429587D-04
 -0.24546576D-04  0.12403780D-04 -0.22026617D-05 -0.39753560D-05 -0.58689541D-05
 -0.29035584D-05  0.81704042D-05 -0.22144027D-05 -0.39965461D-05 -0.59002376D-05
 -0.28003083D-05  0.81600390D-05  0.39093881D-05  0.70556498D-05  0.10416497D-04
 -0.24553583D-04  0.12415231D-04
MO    2     MO 0.0        OCC NO =    2.0000000  ORB. ENERGY =  -19.733705
 -0.52824311D+00 -0.98668694D+00 -0.16900051D+01 -0.26625917D+01 -0.37218296D+01
 -0.40738700D+01 -0.28239496D+01 -0.71777626D+00 -0.10551042D+01 -0.20586021D+01
  0.24512656D+01  0.12657842D+01 -0.62418472D-01  0.50550025D-01 -0.13167008D-01
  0.33204778D-02 -0.44472043D-04  0.49012504D-05  0.64777209D-05  0.71637592D-05
  0.58113750D-05  0.28761325D-05  0.53817176D-06  0.11857240D-04  0.15671081D-04
  0.17330764D-04  0.14059039D-04  0.69580192D-05  0.13019600D-05  0.37880855D-05
  0.50065102D-05  0.55367365D-05  0.44915039D-05  0.22229094D-05  0.41594297D-06
 -0.39432229D-07  0.65267019D-07  0.37370534D-07  0.14579375D-06 -0.24131335D-06
 -0.13817099D-06  0.20581833D-06 -0.34066420D-06 -0.19505722D-06 -0.34848703D-07
  0.32100313D-06  0.34707798D-06 -0.16693945D-04 -0.10741375D-04 -0.52886603D-05
 -0.16802541D-05  0.37356413D-03  0.24036213D-03  0.11834553D-03  0.37599419D-04
 -0.35687018D-03 -0.22962076D-03 -0.11305687D-03 -0.35919165D-04  0.18102358D-01
  0.11647589D-01  0.57348470D-02  0.18220115D-02 -0.18805421D-01 -0.12099960D-01
 -0.59575780D-02 -0.18927751D-02  0.18544215D-01  0.11931893D-01  0.58748278D-02
  0.18664847D-02  0.66518812D-07 -0.86313208D-05  0.85648020D-05 -0.43268806D-03
  0.45016950D-03 -0.44249417D-03  0.27721999D-07  0.31475707D-05 -0.31752927D-05
  0.16209717D-03 -0.16890675D-03  0.16548424D-03 -0.18438834D-04 -0.34429059D-04
 -0.58882711D-04 -0.92182936D-04 -0.12608594D-03 -0.13544909D-03  0.24869442D-03
  0.78578435D-04 -0.63091043D-03  0.11631105D-02 -0.14329579D-02  0.24093360D-03
  0.26672623D-03  0.23228235D-03  0.13490660D-03  0.16732278D-03  0.18523516D-03
  0.16131469D-03  0.93689492D-04 -0.15588592D-03 -0.17257395D-03 -0.15028849D-03
 -0.87285618D-04 -0.14968928D-03 -0.11970768D-03  0.11263334D-03  0.52222968D-03
  0.78094522D-04 -0.54533398D-04 -0.27757095D-04 -0.50095906D-04 -0.73958299D-04
  0.18623344D-03 -0.10294661D-03 -0.18446417D-04 -0.34443220D-04 -0.58906929D-04
 -0.92220849D-04 -0.12613779D-03 -0.13550480D-03  0.24878945D-03  0.78608463D-04
 -0.63098774D-03  0.11630815D-02 -0.14336943D-02 -0.17127753D-03 -0.18961328D-03
 -0.16512744D-03 -0.95903887D-04  0.15734040D-03  0.17418414D-03  0.15169075D-03
  0.88100031D-04  0.23788524D-03  0.26335153D-03  0.22934345D-03  0.13319972D-03
  0.12248820D-03 -0.11326707D-03 -0.14706543D-03 -0.80639513D-04  0.63699541D-04
  0.52102536D-03  0.17486163D-04  0.31558964D-04  0.46591578D-04  0.40426543D-04
 -0.63970206D-04 -0.18449715D-04 -0.34449378D-04 -0.58917461D-04 -0.92237338D-04
 -0.12616035D-03 -0.13552903D-03  0.24885512D-03  0.78629211D-04 -0.63135153D-03
  0.11639085D-02 -0.14336992D-02 -0.15248336D-03 -0.16880714D-03 -0.14700811D-03
 -0.85380418D-04 -0.24408869D-03 -0.27021908D-03 -0.23532415D-03 -0.13667323D-03
 -0.16558978D-03 -0.18331664D-03 -0.15964391D-03 -0.92719128D-04  0.11015217D-03
  0.15207015D-03  0.11888538D-03 -0.53857502D-04 -0.52396235D-03 -0.69554998D-04
  0.17326650D-04  0.31271077D-04  0.46166560D-04  0.41138441D-04 -0.64045684D-04
 -0.18432871D-04 -0.34417925D-04 -0.58863669D-04 -0.92153125D-04 -0.12604516D-03
 -0.13540529D-03  0.24860254D-03  0.78549406D-04 -0.63063790D-03  0.11626564D-02
 -0.14327370D-02 -0.24087785D-03 -0.26666452D-03 -0.23222861D-03 -0.13487538D-03
 -0.16785437D-03 -0.18582366D-03 -0.16182719D-03 -0.93987144D-04  0.15588819D-03
  0.17257646D-03  0.15029068D-03  0.87286890D-04  0.14955365D-03  0.12017995D-03
 -0.11257471D-03 -0.52209478D-03 -0.79095043D-04  0.54616767D-04 -0.27805952D-04
 -0.50184083D-04 -0.74088479D-04  0.18691474D-03 -0.10300474D-03 -0.18450347D-04
 -0.34450557D-04 -0.58919478D-04 -0.92240496D-04 -0.12616467D-03 -0.13553367D-03
  0.24886362D-03  0.78631897D-04 -0.63133041D-03  0.11638253D-02 -0.14338082D-02
  0.17132913D-03  0.18967040D-03  0.16517718D-03  0.95932776D-04 -0.15647001D-03
 -0.17322057D-03 -0.15085161D-03 -0.87612670D-04 -0.23785486D-03 -0.26331791D-03
 -0.22931416D-03 -0.13318271D-03 -0.12265873D-03  0.11245054D-03  0.14747027D-03
  0.80703971D-04 -0.62617236D-04 -0.52136020D-03 -0.27746485D-04 -0.50076758D-04
 -0.73930031D-04  0.18630247D-03 -0.10304587D-03 -0.18456128D-04 -0.34461352D-04
 -0.58937941D-04 -0.92269399D-04 -0.12620420D-03 -0.13557614D-03  0.24893551D-03
  0.78654611D-04 -0.63142266D-03  0.11637849D-02 -0.14339223D-02  0.15230531D-03
  0.16861003D-03  0.14683645D-03  0.85280719D-04  0.24427497D-03  0.27042531D-03
  0.23550374D-03  0.13677754D-03  0.16635014D-03  0.18415840D-03  0.16037698D-03
  0.93144880D-04 -0.10991702D-03 -0.15185791D-03 -0.11956727D-03  0.53315422D-04
  0.52376237D-03  0.70245435D-04  0.17410690D-04  0.31422751D-04  0.46390482D-04
  0.41029319D-04 -0.64053452D-04  0.17402201D-04  0.31407430D-04  0.46367863D-04
  0.40860974D-04 -0.63905245D-04 -0.27793991D-04 -0.50162496D-04 -0.74056609D-04
  0.18676505D-03 -0.10298565D-03 -0.27749068D-04 -0.50081420D-04 -0.73936913D-04
  0.18628748D-03 -0.10293373D-03  0.17372739D-04  0.31354257D-04  0.46289362D-04
  0.41070065D-04 -0.63984253D-04  0.17459102D-04  0.31510124D-04  0.46519474D-04
  0.40205170D-04 -0.63890647D-04 -0.27715838D-04 -0.50021447D-04 -0.73848372D-04
  0.18635188D-03 -0.10303068D-03
MO    3     MO 0.0        OCC NO =    2.0000000  ORB. ENERGY =  -19.095123
 -0.33488722D-04 -0.62552420D-04 -0.10714027D-03 -0.16879878D-03 -0.23595067D-03
 -0.25826878D-03 -0.17902830D-03 -0.45504445D-04  0.32301641D-04  0.63023373D-04
 -0.75044624D-04 -0.38751533D-04  0.33909897D-03 -0.27462161D-03  0.30647360D-03
 -0.25682181D-03  0.14423170D-04 -0.13567295D-03 -0.17931169D-03 -0.19830212D-03
 -0.16086638D-03 -0.79615069D-04 -0.14897291D-04  0.13761058D-03  0.18187255D-03
  0.20113420D-03  0.16316381D-03  0.80752100D-04  0.15110048D-04  0.52278489D-04
  0.69093686D-04  0.76411216D-04  0.61986203D-04  0.30677857D-04  0.57403324D-05
 -0.36427122D-04  0.60293057D-04  0.34522547D-04  0.36418725D-04 -0.60279160D-04
 -0.34514589D-04 -0.11447047D-04  0.18946802D-04  0.10848544D-04 -0.64528525D-04
  0.62200276D-04 -0.13260359D-03  0.84902067D-03  0.54628483D-03  0.26897068D-03
  0.85454362D-04  0.85019015D-03  0.54703731D-03  0.26934118D-03  0.85572071D-04
 -0.16992108D-02 -0.10933221D-02 -0.53831186D-03 -0.17102643D-03 -0.18350965D-03
 -0.11807550D-03 -0.58136060D-04 -0.18470340D-04  0.25659655D-03  0.16510175D-03
  0.81290069D-04  0.25826573D-04 -0.11390334D-03 -0.73288753D-04 -0.36084703D-04
 -0.11464429D-04 -0.37314294D-04 -0.36750930D-04  0.74065224D-04  0.18623991D-04
 -0.23808947D-05 -0.33647900D-05  0.23397787D-04  0.23852920D-04 -0.47250707D-04
 -0.74753108D-07  0.78611703D-05 -0.35700467D-05  0.13785868D-01  0.25741024D-01
  0.44023895D-01  0.68920942D-01  0.94268657D-01  0.10126906D+00  0.70118321D-01
  0.22154852D-01  0.11487110D-02 -0.50037295D-03  0.21334331D-03  0.12290577D-03
  0.13606319D-03  0.11849257D-03  0.68818959D-04  0.75323709D-04  0.83387328D-04
  0.72619047D-04  0.42176206D-04 -0.10767538D-03 -0.11920234D-03 -0.10380906D-03
 -0.60290964D-04  0.45730872D-04 -0.51244961D-04  0.72914785D-04 -0.67388576D-04
  0.58556713D-04 -0.59638494D-04 -0.66411953D-05 -0.11986006D-04 -0.17695350D-04
  0.59491927D-04  0.20504313D-04  0.37027767D+00  0.69138386D+00  0.11824475D+01
  0.18511628D+01  0.25319827D+01  0.27200080D+01  0.18843366D+01  0.59538216D+00
  0.28500365D-01 -0.90571743D-02  0.25501073D-02 -0.54135610D-03 -0.59930982D-03
 -0.52191752D-03 -0.30312297D-03  0.39303296D-03  0.43510826D-03  0.37892025D-03
  0.22007200D-03  0.43747114D-02  0.48430368D-02  0.42176278D-02  0.24495439D-02
  0.12060478D-03 -0.97375964D-04 -0.57394021D-03 -0.74716195D-04  0.69999626D-04
  0.56318679D-05  0.14953219D-03  0.26987517D-03  0.39842594D-03 -0.23318162D-03
 -0.19424128D-03  0.59278643D-02  0.11068531D-01  0.18930087D-01  0.29635711D-01
  0.40535120D-01  0.43545262D-01  0.30127471D-01  0.95191906D-02  0.54759888D-03
 -0.31513693D-03  0.16498808D-03 -0.63390019D-04 -0.70176103D-04 -0.61113862D-04
 -0.35494143D-04 -0.27998589D-04 -0.30995918D-04 -0.26993238D-04 -0.15677325D-04
 -0.10639175D-03 -0.11778129D-03 -0.10257152D-03 -0.59572216D-04  0.52654498D-04
 -0.60272087D-04  0.72748727D-04 -0.61652124D-04  0.69992633D-04 -0.59895713D-04
  0.16562310D-04  0.29891598D-04  0.44129988D-04 -0.93370772D-04 -0.94007990D-05
 -0.40689919D-01 -0.75976371D-01 -0.12993950D+00 -0.20342481D+00 -0.27824030D+00
 -0.29890245D+00 -0.20701517D+00 -0.65409300D-01 -0.32444261D-02  0.11437541D-02
 -0.30897491D-03  0.36421810D-03  0.40320870D-03  0.35114006D-03  0.20393762D-03
  0.14093296D-03  0.15602024D-03  0.13587246D-03  0.78912972D-04 -0.13067995D-03
 -0.14466962D-03 -0.12598760D-03 -0.73171977D-04  0.58185948D-04 -0.65502664D-04
  0.11386936D-03 -0.52159330D-04  0.89197199D-04 -0.12743649D-03  0.71353319D-05
  0.12877822D-04  0.19011969D-04 -0.12836991D-03  0.50242853D-05 -0.14279667D-02
 -0.26663048D-02 -0.45600798D-02 -0.71389637D-02 -0.97645288D-02 -0.10489644D-01
 -0.72547475D-02 -0.22922376D-02 -0.13045717D-03  0.22605986D-04  0.11344748D-03
 -0.43561844D-04 -0.48225264D-04 -0.41997661D-04 -0.24391700D-04  0.41795838D-04
  0.46270202D-04  0.40295067D-04  0.23402855D-04 -0.46663374D-04 -0.51658821D-04
 -0.44987823D-04 -0.26128348D-04  0.36214534D-04 -0.34725098D-04  0.65175816D-04
 -0.54529250D-04  0.50085718D-04  0.38623461D-04  0.38074384D-05  0.68716512D-05
  0.10144854D-04 -0.40726926D-04 -0.13460190D-04 -0.33319520D-01 -0.62214333D-01
 -0.10640281D+00 -0.16657730D+00 -0.22784103D+00 -0.24476053D+00 -0.16950543D+00
 -0.53557582D-01 -0.26813565D-02  0.97118522D-03 -0.26486135D-03 -0.11823837D-03
 -0.13089613D-03 -0.11399277D-03 -0.66205529D-04 -0.27661061D-03 -0.30622256D-03
 -0.26667830D-03 -0.15488332D-03 -0.13774741D-03 -0.15249366D-03 -0.13280129D-03
 -0.77129276D-04  0.66293691D-04 -0.72725981D-04  0.11371647D-03 -0.89490774D-04
  0.55938140D-04 -0.12926432D-03 -0.38360371D-04 -0.69232661D-04 -0.10221054D-03
  0.19667758D-03  0.10350596D-04  0.19158210D-04  0.34576670D-04  0.51046721D-04
 -0.94156055D-04 -0.13574009D-04  0.11461602D-03  0.20685859D-03  0.30539241D-03
 -0.47998384D-05 -0.20934599D-03  0.10074306D-04  0.18182072D-04  0.26842814D-04
 -0.13218324D-03  0.91648540D-07 -0.12361526D-04 -0.22310038D-04 -0.32937071D-04
  0.76043839D-04  0.48433878D-05 -0.40707098D-04 -0.73468025D-04 -0.10846336D-03
  0.19680669D-03  0.14527370D-04 -0.97552584D-05 -0.17606256D-04 -0.25992717D-04
  0.63350869D-04  0.25667478D-04
MO    4     MO 0.0        OCC NO =    2.0000000  ORB. ENERGY =  -19.095107
 -0.51384917D-04 -0.95980099D-04 -0.16439546D-03 -0.25900395D-03 -0.36204145D-03
 -0.39628623D-03 -0.27470006D-03 -0.69821778D-04  0.49603351D-04  0.96780547D-04
 -0.11524073D-03 -0.59507995D-04  0.52040200D-03 -0.42145111D-03  0.47044860D-03
 -0.39414852D-03  0.22210980D-04 -0.72137261D-04 -0.95339965D-04 -0.10543717D-03
 -0.85532597D-04 -0.42331304D-04 -0.79208842D-05 -0.97555720D-04 -0.12893418D-03
 -0.14258926D-03 -0.11567107D-03 -0.57247265D-04 -0.10711906D-04  0.16750020D-03
  0.22137607D-03  0.24482142D-03  0.19860370D-03  0.98291810D-04  0.18392017D-04
  0.64616068D-05 -0.10695054D-04 -0.61237648D-05 -0.29132950D-04  0.48219967D-04
  0.27609747D-04  0.39196909D-04 -0.64877524D-04 -0.37147517D-04  0.12514320D-03
 -0.64583932D-04  0.44012827D-04 -0.12620759D-02 -0.81205671D-03 -0.39982704D-03
 -0.12702858D-03  0.57997648D-03  0.37317390D-03  0.18373719D-03  0.58374927D-04
  0.68209944D-03  0.43888281D-03  0.21608985D-03  0.68653655D-04 -0.29295875D-03
 -0.18849827D-03 -0.92809656D-04 -0.29486447D-04  0.13452054D-03  0.86554464D-04
  0.42616254D-04  0.13539560D-04 -0.25987472D-03 -0.16721103D-03 -0.82328598D-04
 -0.26156523D-04  0.54836313D-04 -0.25456073D-04 -0.29380240D-04  0.38742894D-05
  0.18181384D-05  0.17236256D-04 -0.35121855D-04  0.16157624D-04  0.18964231D-04
 -0.77747543D-05  0.30091999D-05 -0.24938864D-05 -0.55779817D-02 -0.10415228D-01
 -0.17812769D-01 -0.27886511D-01 -0.38142600D-01 -0.40975073D-01 -0.28374440D-01
 -0.89652962D-02 -0.44568133D-03  0.10301313D-03  0.11739220D-03  0.88736277D-05
  0.98235750D-05  0.85550007D-05  0.49686341D-05 -0.46658011D-04 -0.51652885D-04
 -0.44982653D-04 -0.26125345D-04  0.38256648D-04  0.42352132D-04  0.36882959D-04
  0.21421147D-04 -0.62758420D-04  0.40396562D-04 -0.29837032D-04 -0.50216581D-04
 -0.60744887D-04  0.50891563D-04  0.31436366D-05  0.56736241D-05  0.83761653D-05
 -0.48531333D-04 -0.59246120D-05  0.47303250D-01  0.88324806D-01  0.15105856D+00
  0.23648743D+00  0.32346268D+00  0.34748305D+00  0.24079080D+00  0.76081179D-01
  0.35079944D-02 -0.98380572D-03  0.29541672D-03  0.38812107D-04  0.42967055D-04
  0.37418474D-04  0.21732167D-04 -0.48822536D-04 -0.54049128D-04 -0.47069456D-04
 -0.27337333D-04  0.70278551D-03  0.77802071D-03  0.67755046D-03  0.39351257D-03
 -0.93957592D-04  0.58888317D-04 -0.22168272D-03  0.12506095D-03 -0.93076182D-04
  0.66736012D-04 -0.97695064D-05 -0.17631970D-04 -0.26030681D-04  0.17476873D-03
 -0.33804255D-04 -0.84912394D-02 -0.15854874D-01 -0.27115989D-01 -0.42451025D-01
 -0.58063645D-01 -0.62375456D-01 -0.43162711D-01 -0.13637855D-01 -0.75031334D-03
  0.31594066D-03 -0.33971065D-04  0.97264438D-04  0.10767688D-03  0.93771946D-04
  0.54461537D-04 -0.19756714D-04 -0.21871727D-04 -0.19047306D-04 -0.11062430D-04
  0.84761721D-04  0.93835707D-04  0.81718166D-04  0.47460857D-04 -0.10156651D-03
  0.10621170D-03 -0.51361486D-04  0.11726106D-03 -0.28187870D-04  0.84504674D-04
 -0.27090909D-04 -0.48893576D-04 -0.72183258D-04  0.17329141D-03 -0.32390270D-05
  0.36261970D+00  0.67708487D+00  0.11579925D+01  0.18128776D+01  0.24796170D+01
  0.26637536D+01  0.18453751D+01  0.58307174D+00  0.27893087D-01 -0.88562966D-02
  0.25126203D-02 -0.43223633D-02 -0.47850846D-02 -0.41671593D-02 -0.24202324D-02
 -0.50037556D-03 -0.55394220D-03 -0.48240848D-03 -0.28017663D-03  0.29690323D-03
  0.32868757D-03  0.28624227D-03  0.16624582D-03  0.58909658D-03  0.10705989D-03
 -0.68341672D-04 -0.10193511D-04 -0.53542439D-04  0.47056035D-04  0.11631016D-03
  0.20991617D-03  0.30990642D-03 -0.33676022D-04 -0.20494686D-03  0.81961195D-02
  0.15303825D-01  0.26173550D-01  0.40975605D-01  0.56045596D-01  0.60207547D-01
  0.41670049D-01  0.13166227D-01  0.72642497D-03 -0.39538013D-03  0.23239128D-03
  0.10525681D-03  0.11652486D-03  0.10147734D-03  0.58936728D-04 -0.68358556D-04
 -0.75676535D-04 -0.65903992D-04 -0.38276189D-04 -0.67755727D-04 -0.75009172D-04
 -0.65322809D-04 -0.37938645D-04 -0.69264744D-04  0.49297721D-04 -0.47092009D-04
  0.51041804D-04 -0.50204749D-04  0.91083128D-04 -0.86173277D-05 -0.15552522D-04
 -0.22960721D-04  0.55045443D-04  0.25320129D-04  0.78721515D-01  0.14698911D+00
  0.25138989D+00  0.39355962D+00  0.53830282D+00  0.57827723D+00  0.40058856D+00
  0.12657149D+00  0.61190293D-02 -0.20558940D-02  0.66483169D-03  0.13899700D-03
  0.15387703D-03  0.13400601D-03  0.77828961D-04  0.92689509D-03  0.10261219D-02
  0.89361289D-03  0.51899885D-03  0.12943561D-03  0.14329206D-03  0.12478794D-03
  0.72475225D-04 -0.71705829D-04 -0.90410324D-04 -0.46097598D-04  0.47980037D-04
 -0.56167882D-04  0.41863847D-04  0.38775190D-04  0.69981324D-04  0.10331582D-03
 -0.89017560D-04 -0.49154518D-04 -0.14815738D-04 -0.26739392D-04 -0.39476279D-04
  0.87398853D-04  0.35284295D-05  0.38241341D-04  0.69017837D-04  0.10189339D-03
 -0.15527571D-03 -0.47020617D-04  0.18374101D-04  0.33161513D-04  0.48957475D-04
  0.25307720D-04 -0.21366318D-04  0.15528982D-04  0.28026651D-04  0.41376704D-04
 -0.80548189D-04 -0.11538598D-04  0.14146986D-03  0.25532430D-03  0.37694400D-03