 xx
GAUSSIAN             21 MOL ORBITALS    204 PRIMITIVES       12 NUCLEI
  C    1    (CENTRE  1)  -0.64789412 -2.25798659 -0.80858558  CHARGE =  6.0
  C    2    (CENTRE  2)   2.00378244 -2.25804550 -0.80767259  CHARGE =  6.0
  C    3    (CENTRE  3)   3.32957150  0.03797658 -0.80885785  CHARGE =  6.0
  C    4    (CENTRE  4)   2.00383009  2.33455553 -0.81068958  CHARGE =  6.0
  C    5    (CENTRE  5)  -0.64746555  2.33459705 -0.81145984  CHARGE =  6.0
  C    6    (CENTRE  6)  -1.97343843  0.03823943 -0.81056883  CHARGE =  6.0
  H    7    (CENTRE  7)  -1.67914719 -4.04433662 -0.80789902  CHARGE =  1.0
  H    8    (CENTRE  8)   3.03479039 -4.04456082 -0.80615313  CHARGE =  1.0
  H    9    (CENTRE  9)   5.39221995  0.03819019 -0.80837236  CHARGE =  1.0
  H   10    (CENTRE 10)   3.03556895  4.12061970 -0.81148607  CHARGE =  1.0
  H   11    (CENTRE 11)  -1.67893662  4.12084368 -0.81301400  CHARGE =  1.0
  H   12    (CENTRE 12)  -4.03609239  0.03856498 -0.81122880  CHARGE =  1.0
CENTRE ASSIGNMENTS    1  1  1  1  1  1  1  1  1  1  1  1  1  1  1  1  1  1  1  1
CENTRE ASSIGNMENTS    1  1  1  1  1  1  1  1  1  2  2  2  2  2  2  2  2  2  2  2
CENTRE ASSIGNMENTS    2  2  2  2  2  2  2  2  2  2  2  2  2  2  2  2  2  2  3  3
CENTRE ASSIGNMENTS    3  3  3  3  3  3  3  3  3  3  3  3  3  3  3  3  3  3  3  3
CENTRE ASSIGNMENTS    3  3  3  3  3  3  3  4  4  4  4  4  4  4  4  4  4  4  4  4
CENTRE ASSIGNMENTS    4  4  4  4  4  4  4  4  4  4  4  4  4  4  4  4  5  5  5  5
CENTRE ASSIGNMENTS    5  5  5  5  5  5  5  5  5  5  5  5  5  5  5  5  5  5  5  5
CENTRE ASSIGNMENTS    5  5  5  5  5  6  6  6  6  6  6  6  6  6  6  6  6  6  6  6
CENTRE ASSIGNMENTS    6  6  6  6  6  6  6  6  6  6  6  6  6  6  7  7  7  7  7  8
CENTRE ASSIGNMENTS    8  8  8  8  9  9  9  9  9 10 10 10 10 10 11 11 11 11 11 12
CENTRE ASSIGNMENTS   12 12 12 12
TYPE ASSIGNMENTS      1  1  1  1  1  1  1  1  1  1  1  2  2  2  2  3  3  3  3  4
TYPE ASSIGNMENTS      4  4  4  2  3  4  2  3  4  1  1  1  1  1  1  1  1  1  1  1
TYPE ASSIGNMENTS      2  2  2  2  3  3  3  3  4  4  4  4  2  3  4  2  3  4  1  1
TYPE ASSIGNMENTS      1  1  1  1  1  1  1  1  1  2  2  2  2  3  3  3  3  4  4  4
TYPE ASSIGNMENTS      4  2  3  4  2  3  4  1  1  1  1  1  1  1  1  1  1  1  2  2
TYPE ASSIGNMENTS      2  2  3  3  3  3  4  4  4  4  2  3  4  2  3  4  1  1  1  1
TYPE ASSIGNMENTS      1  1  1  1  1  1  1  2  2  2  2  3  3  3  3  4  4  4  4  2
TYPE ASSIGNMENTS      3  4  2  3  4  1  1  1  1  1  1  1  1  1  1  1  2  2  2  2
TYPE ASSIGNMENTS      3  3  3  3  4  4  4  4  2  3  4  2  3  4  1  1  1  1  1  1
TYPE ASSIGNMENTS      1  1  1  1  1  1  1  1  1  1  1  1  1  1  1  1  1  1  1  1
TYPE ASSIGNMENTS      1  1  1  1
EXPONENTS  0.1357535D+05 0.2035233D+04 0.4632256D+03 0.1312002D+03 0.4285302D+02
EXPONENTS  0.1558419D+02 0.6206714D+01 0.2576490D+01 0.5769634D+00 0.2297283D+00
EXPONENTS  0.9516444D-01 0.3469723D+02 0.7958262D+01 0.2378083D+01 0.8143321D+00
EXPONENTS  0.3469723D+02 0.7958262D+01 0.2378083D+01 0.8143321D+00 0.3469723D+02
EXPONENTS  0.7958262D+01 0.2378083D+01 0.8143321D+00 0.2888755D+00 0.2888755D+00
EXPONENTS  0.2888755D+00 0.1005682D+00 0.1005682D+00 0.1005682D+00 0.1357535D+05
EXPONENTS  0.2035233D+04 0.4632256D+03 0.1312002D+03 0.4285302D+02 0.1558419D+02
EXPONENTS  0.6206714D+01 0.2576490D+01 0.5769634D+00 0.2297283D+00 0.9516444D-01
EXPONENTS  0.3469723D+02 0.7958262D+01 0.2378083D+01 0.8143321D+00 0.3469723D+02
EXPONENTS  0.7958262D+01 0.2378083D+01 0.8143321D+00 0.3469723D+02 0.7958262D+01
EXPONENTS  0.2378083D+01 0.8143321D+00 0.2888755D+00 0.2888755D+00 0.2888755D+00
EXPONENTS  0.1005682D+00 0.1005682D+00 0.1005682D+00 0.1357535D+05 0.2035233D+04
EXPONENTS  0.4632256D+03 0.1312002D+03 0.4285302D+02 0.1558419D+02 0.6206714D+01
EXPONENTS  0.2576490D+01 0.5769634D+00 0.2297283D+00 0.9516444D-01 0.3469723D+02
EXPONENTS  0.7958262D+01 0.2378083D+01 0.8143321D+00 0.3469723D+02 0.7958262D+01
EXPONENTS  0.2378083D+01 0.8143321D+00 0.3469723D+02 0.7958262D+01 0.2378083D+01
EXPONENTS  0.8143321D+00 0.2888755D+00 0.2888755D+00 0.2888755D+00 0.1005682D+00
EXPONENTS  0.1005682D+00 0.1005682D+00 0.1357535D+05 0.2035233D+04 0.4632256D+03
EXPONENTS  0.1312002D+03 0.4285302D+02 0.1558419D+02 0.6206714D+01 0.2576490D+01
EXPONENTS  0.5769634D+00 0.2297283D+00 0.9516444D-01 0.3469723D+02 0.7958262D+01
EXPONENTS  0.2378083D+01 0.8143321D+00 0.3469723D+02 0.7958262D+01 0.2378083D+01
EXPONENTS  0.8143321D+00 0.3469723D+02 0.7958262D+01 0.2378083D+01 0.8143321D+00
EXPONENTS  0.2888755D+00 0.2888755D+00 0.2888755D+00 0.1005682D+00 0.1005682D+00
EXPONENTS  0.1005682D+00 0.1357535D+05 0.2035233D+04 0.4632256D+03 0.1312002D+03
EXPONENTS  0.4285302D+02 0.1558419D+02 0.6206714D+01 0.2576490D+01 0.5769634D+00
EXPONENTS  0.2297283D+00 0.9516444D-01 0.3469723D+02 0.7958262D+01 0.2378083D+01
EXPONENTS  0.8143321D+00 0.3469723D+02 0.7958262D+01 0.2378083D+01 0.8143321D+00
EXPONENTS  0.3469723D+02 0.7958262D+01 0.2378083D+01 0.8143321D+00 0.2888755D+00
EXPONENTS  0.2888755D+00 0.2888755D+00 0.1005682D+00 0.1005682D+00 0.1005682D+00
EXPONENTS  0.1357535D+05 0.2035233D+04 0.4632256D+03 0.1312002D+03 0.4285302D+02
EXPONENTS  0.1558419D+02 0.6206714D+01 0.2576490D+01 0.5769634D+00 0.2297283D+00
EXPONENTS  0.9516444D-01 0.3469723D+02 0.7958262D+01 0.2378083D+01 0.8143321D+00
EXPONENTS  0.3469723D+02 0.7958262D+01 0.2378083D+01 0.8143321D+00 0.3469723D+02
EXPONENTS  0.7958262D+01 0.2378083D+01 0.8143321D+00 0.2888755D+00 0.2888755D+00
EXPONENTS  0.2888755D+00 0.1005682D+00 0.1005682D+00 0.1005682D+00 0.3406134D+02
EXPONENTS  0.5123575D+01 0.1164663D+01 0.3272304D+00 0.1030724D+00 0.3406134D+02
EXPONENTS  0.5123575D+01 0.1164663D+01 0.3272304D+00 0.1030724D+00 0.3406134D+02
EXPONENTS  0.5123575D+01 0.1164663D+01 0.3272304D+00 0.1030724D+00 0.3406134D+02
EXPONENTS  0.5123575D+01 0.1164663D+01 0.3272304D+00 0.1030724D+00 0.3406134D+02
EXPONENTS  0.5123575D+01 0.1164663D+01 0.3272304D+00 0.1030724D+00 0.3406134D+02
EXPONENTS  0.5123575D+01 0.1164663D+01 0.3272304D+00 0.1030724D+00
MO    1     MO 0.0        OCC NO =    2.0000000  ORB. ENERGY =   -9.894816
  0.10343024D+00  0.19304160D+00  0.32947041D+00  0.51202991D+00  0.68582787D+00
  0.70449377D+00  0.45615233D+00  0.13517115D+00  0.71711828D-02 -0.21685708D-02
  0.40197064D-03 -0.68423704D-04 -0.73033064D-04 -0.63957857D-04 -0.40388589D-04
 -0.11887498D-03 -0.12688299D-03 -0.11111630D-03 -0.70168557D-04  0.20768844D-07
  0.22167937D-07  0.19413313D-07  0.12259265D-07  0.49257657D-04  0.86386882D-04
 -0.23532180D-07 -0.20695640D-05 -0.47549038D-05 -0.20323874D-08  0.10320407D+00
  0.19261949D+00  0.32874998D+00  0.51091029D+00  0.68432822D+00  0.70295330D+00
  0.45515764D+00  0.13487639D+00  0.71519720D-02 -0.21566429D-02  0.38859182D-03
  0.68636838D-04  0.73260557D-04  0.64157080D-04  0.40514396D-04 -0.11998063D-03
 -0.12806312D-03 -0.11214979D-03 -0.70821192D-04  0.83462246D-07  0.89084678D-07
  0.78014870D-07  0.49265418D-07 -0.49978550D-04  0.87569740D-04 -0.65482476D-07
  0.43998067D-05 -0.60643498D-05 -0.53407881D-08  0.10384428D+00  0.19381436D+00
  0.33078930D+00  0.51407960D+00  0.68857329D+00  0.70731391D+00  0.45797678D+00
  0.13571179D+00  0.72019612D-02 -0.21796742D-02  0.40034014D-03  0.13582944D-03
  0.14497959D-03  0.12696419D-03  0.80176303D-04 -0.49753676D-06 -0.53105331D-06
 -0.46506376D-06 -0.29368197D-06  0.50009437D-07  0.53378322D-07  0.46745444D-07
  0.29519165D-07 -0.99197071D-04  0.12959070D-05 -0.33091533D-07  0.45603148D-05
 -0.17369456D-07  0.10810871D-07  0.10404682D+00  0.19419238D+00  0.33143449D+00
  0.51508229D+00  0.68991633D+00  0.70869350D+00  0.45886870D+00  0.13597609D+00
  0.72178628D-02 -0.21872137D-02  0.40572073D-03  0.67407585D-04  0.71948495D-04
  0.63008057D-04  0.39788803D-04  0.11703712D-03  0.12492132D-03  0.10939839D-03
  0.69083720D-04 -0.30202533D-07 -0.32237126D-07 -0.28231288D-07 -0.17827706D-07
 -0.48667049D-04 -0.85750095D-04  0.29772546D-07  0.13595724D-05  0.30321851D-05
  0.10019281D-08  0.10338993D+00  0.19296637D+00  0.32934202D+00  0.51183038D+00
  0.68556062D+00  0.70421924D+00  0.45597659D+00  0.13511907D+00  0.71658372D-02
 -0.21616667D-02  0.38708098D-03 -0.69304310D-04 -0.73972993D-04 -0.64780988D-04
 -0.40908387D-04  0.11885003D-03  0.12685636D-03  0.11109298D-03  0.70153830D-04
 -0.16799802D-06 -0.17931520D-06 -0.15703320D-06 -0.99164510D-07  0.51034386D-04
 -0.86798917D-04  0.10298417D-06 -0.32257229D-05  0.66672533D-05 -0.22439934D-07
  0.10346855D+00  0.19311310D+00  0.32959244D+00  0.51221956D+00  0.68608190D+00
  0.70475471D+00  0.45632133D+00  0.13522123D+00  0.71737721D-02 -0.21690524D-02
  0.40131110D-03 -0.13712036D-03 -0.14635747D-03 -0.12817085D-03 -0.80938297D-04
 -0.41474983D-07 -0.44268944D-07 -0.38768012D-07 -0.24481516D-07  0.22751434D-07
  0.24284083D-07  0.21266503D-07  0.13429532D-07  0.99569770D-04 -0.32459620D-06
  0.42514659D-08 -0.50773288D-05  0.10806082D-05  0.14441003D-07 -0.82723230D-04
 -0.14929859D-03 -0.22041462D-03  0.33145983D-03 -0.14063557D-03 -0.82648110D-04
 -0.14916302D-03 -0.22021446D-03  0.33051072D-03 -0.14058594D-03 -0.83085060D-04
 -0.14995162D-03 -0.22137871D-03  0.33319893D-03 -0.14034431D-03 -0.83222936D-04
 -0.15020046D-03 -0.22174607D-03  0.33404175D-03 -0.14023023D-03 -0.82804864D-04
 -0.14944592D-03 -0.22063213D-03  0.33126353D-03 -0.14049925D-03 -0.82772575D-04
 -0.14938765D-03 -0.22054610D-03  0.33165810D-03 -0.14054754D-03
MO    2     MO 0.0        OCC NO =    2.0000000  ORB. ENERGY =   -9.894674
  0.13331834D+00  0.24882458D+00  0.42467706D+00  0.65999055D+00  0.88401069D+00
  0.90807045D+00  0.58736306D+00  0.17405269D+00  0.10058620D-01 -0.39303687D-02
  0.37651576D-03  0.31358786D-03  0.33471269D-03  0.29312075D-03  0.18510210D-03
  0.34423633D-03  0.36742580D-03  0.32176887D-03  0.20319303D-03 -0.15891169D-06
 -0.16961677D-06 -0.14853991D-06 -0.93801103D-07 -0.19800370D-03 -0.74356562D-04
 -0.24241973D-08  0.37228132D-04  0.34555486D-03 -0.21025609D-06  0.13693983D-01
  0.25558370D-01  0.43621306D-01  0.67791864D-01  0.90802410D-01  0.93273743D-01
  0.60332997D-01  0.17878415D-01  0.10315128D-02 -0.40053604D-03  0.31666900D-04
  0.18223438D-03  0.19451059D-03  0.17034039D-03  0.10756783D-03  0.15828695D-03
  0.16894995D-03  0.14795595D-03  0.93432338D-04 -0.37947697D-07 -0.40504043D-07
 -0.35470944D-07 -0.22399459D-07 -0.26871089D-03 -0.17365697D-03  0.22002490D-07
 -0.30591898D-03 -0.14121166D-03  0.72752336D-08 -0.11919277D+00 -0.22246069D+00
 -0.37968093D+00 -0.59006207D+00 -0.79034644D+00 -0.81185698D+00 -0.52512849D+00
 -0.15561078D+00 -0.89944115D-02  0.35146943D-02 -0.32457337D-03  0.40877000D-03
  0.43630678D-03  0.38209059D-03  0.24128544D-03  0.13762076D-03  0.14689158D-03
  0.12863859D-03  0.81233668D-04  0.21936988D-07  0.23414772D-07  0.20505214D-07
  0.12948787D-07 -0.14646748D-03 -0.18569724D-03  0.83187187D-07  0.28279354D-03
 -0.19466967D-03  0.20416667D-06 -0.13298954D+00 -0.24821090D+00 -0.42362967D+00
 -0.65836280D+00 -0.88183044D+00 -0.90583086D+00 -0.58591207D+00 -0.17362272D+00
 -0.10036881D-01  0.39254764D-02 -0.37800931D-03  0.31402671D-03  0.33518111D-03
  0.29353096D-03  0.18536114D-03  0.34513469D-03  0.36838468D-03  0.32260860D-03
  0.20372331D-03 -0.14110174D-06 -0.15060705D-06 -0.13189238D-06 -0.83288391D-07
 -0.19806296D-03 -0.75174796D-04 -0.11675838D-07  0.37325819D-04  0.34601621D-03
 -0.19035659D-06 -0.13359388D-01 -0.24933884D-01 -0.42555476D-01 -0.66135458D-01
 -0.88583772D-01 -0.90994721D-01 -0.58856926D-01 -0.17441012D-01 -0.10090224D-02
  0.39492592D-03 -0.33083898D-04  0.18203193D-03  0.19429451D-03  0.17015115D-03
  0.10744833D-03  0.15888552D-03  0.16958884D-03  0.14851546D-03  0.93785659D-04
 -0.43186002D-07 -0.46095225D-07 -0.40367357D-07 -0.25491483D-07 -0.26875415D-03
 -0.17447995D-03  0.27494390D-07 -0.30617397D-03 -0.14014455D-03 -0.24072157D-07
  0.11977914D+00  0.22355510D+00  0.38154880D+00  0.59296493D+00  0.79423461D+00
  0.81585098D+00  0.52771328D+00  0.15637673D+00  0.90368465D-02 -0.35303830D-02
  0.33228048D-03  0.40873982D-03  0.43627456D-03  0.38206237D-03  0.24126762D-03
  0.13756197D-03  0.14682883D-03  0.12858364D-03  0.81198967D-04  0.12082273D-06
  0.12896195D-06  0.11293693D-06  0.71318264D-07 -0.14669120D-03 -0.18559830D-03
  0.43988802D-07  0.28423074D-03 -0.19480492D-03  0.20891153D-06 -0.10892822D-03
 -0.19659326D-03 -0.29023735D-03  0.55379856D-03  0.81344180D-04 -0.11201316D-04
 -0.20216096D-04 -0.29845714D-04  0.56565727D-04  0.76652398D-05  0.97422673D-04
  0.17582809D-03  0.25958103D-03 -0.49530694D-03 -0.73150471D-04  0.10863954D-03
  0.19607225D-03  0.28946817D-03 -0.55278423D-03 -0.81738013D-04  0.10925123D-04
  0.19717623D-04  0.29109801D-04 -0.55710448D-04 -0.86793776D-05 -0.97855445D-04
 -0.17660916D-03 -0.26073414D-03  0.49744238D-03  0.72862735D-04
MO    3     MO 0.0        OCC NO =    2.0000000  ORB. ENERGY =   -9.894673
  0.61236514D-01  0.11429147D+00  0.19506500D+00  0.30315048D+00  0.40604864D+00
  0.41709991D+00  0.26979017D+00  0.79946640D-01  0.46211243D-02 -0.18078767D-02
  0.18719470D-03 -0.82677525D-04 -0.88247094D-04 -0.77281366D-04 -0.48802219D-04
  0.28913940D-03  0.30861727D-03  0.27026798D-03  0.17067086D-03 -0.21194902D-06
 -0.22622695D-06 -0.19811562D-06 -0.12510755D-06  0.21472497D-03 -0.21108035D-03
  0.19993800D-06  0.33970491D-03 -0.24157889D-04  0.15803282D-06  0.14572378D+00
  0.27197802D+00  0.46419378D+00  0.72140348D+00  0.96626897D+00  0.99256753D+00
  0.64201832D+00  0.19024862D+00  0.10993972D-01 -0.42924018D-02  0.38489198D-03
 -0.26841270D-03 -0.28649431D-03 -0.25089406D-03 -0.15843647D-03  0.42051218D-03
  0.44883997D-03  0.39306638D-03  0.24821652D-03 -0.39027592D-06 -0.41656684D-06
 -0.36480357D-06 -0.23036890D-06  0.11535403D-03 -0.13909169D-03  0.14471282D-06
 -0.14458083D-03  0.31215622D-03 -0.26451326D-06  0.85110817D-01  0.15885033D+00
  0.27111506D+00  0.42133987D+00  0.56435498D+00  0.57971480D+00  0.37497220D+00
  0.11111512D+00  0.64242798D-02 -0.25162854D-02  0.26602980D-03 -0.29067900D-03
 -0.31026058D-03 -0.27170709D-03 -0.17157964D-03  0.19425124D-03  0.20733696D-03
  0.18157293D-03  0.11466104D-03 -0.19346962D-06 -0.20650269D-06 -0.18084233D-06
 -0.11419968D-06  0.10564613D-03 -0.26233218D-03  0.18868854D-06 -0.20794703D-03
 -0.27465801D-03  0.13654677D-06 -0.61490815D-01 -0.11476610D+00 -0.19587506D+00
 -0.30440940D+00 -0.40773487D+00 -0.41883203D+00 -0.27090886D+00 -0.80278142D-01
 -0.46425859D-02  0.18205336D-02 -0.19982935D-03 -0.82146752D-04 -0.87680565D-04
 -0.76785235D-04 -0.48488918D-04  0.29034955D-03  0.30990894D-03  0.27139915D-03
  0.17138518D-03 -0.23958081D-06 -0.25572017D-06 -0.22394396D-06 -0.14141782D-06
  0.21454709D-03 -0.21263459D-03  0.21707061D-06  0.34084517D-03 -0.21351994D-04
  0.96494430D-07 -0.14562253D+00 -0.27178905D+00 -0.46387126D+00 -0.72090225D+00
 -0.96559761D+00 -0.99187789D+00 -0.64157172D+00 -0.19011628D+00 -0.10987029D-01
  0.42904209D-02 -0.38465350D-03 -0.26825703D-03 -0.28632816D-03 -0.25074855D-03
 -0.15834458D-03  0.42081693D-03  0.44916525D-03  0.39335124D-03  0.24839641D-03
 -0.25956612D-06 -0.27705178D-06 -0.24262487D-06 -0.15321458D-06  0.11439343D-03
 -0.13978985D-03  0.90694980D-07 -0.14395577D-03  0.31251216D-03 -0.24702606D-06
 -0.84638785D-01 -0.15796934D+00 -0.26961144D+00 -0.41900309D+00 -0.56122502D+00
 -0.57649966D+00 -0.37289333D+00 -0.11049909D+00 -0.63876446D-02  0.24989236D-02
 -0.25240675D-03 -0.28960635D-03 -0.30911567D-03 -0.27070445D-03 -0.17094649D-03
  0.19412687D-03  0.20720422D-03  0.18145668D-03  0.11458763D-03 -0.28178853D-06
 -0.30077120D-06 -0.26339688D-06 -0.16633185D-06  0.10439588D-03 -0.26175550D-03
  0.22650774D-06 -0.20496946D-03 -0.27502769D-03  0.96105643D-07 -0.50031760D-04
 -0.90297142D-04 -0.13330876D-03  0.25461095D-03  0.37708412D-04 -0.11910318D-03
 -0.21495700D-03 -0.31734838D-03  0.60508975D-03  0.88629317D-04 -0.69454460D-04
 -0.12535116D-03 -0.18506021D-03  0.35396870D-03  0.52546302D-04  0.50157401D-04
  0.90523899D-04  0.13364353D-03 -0.25593924D-03 -0.38332313D-04  0.11901987D-03
  0.21480664D-03  0.31712639D-03 -0.60475740D-03 -0.88729952D-04  0.69156248D-04
  0.12481295D-03  0.18426563D-03 -0.35194924D-03 -0.52257336D-04
MO    4     MO 0.0        OCC NO =    2.0000000  ORB. ENERGY =   -9.894335
  0.13174369D+00  0.24588565D+00  0.41966109D+00  0.65219523D+00  0.87356942D+00
  0.89734500D+00  0.57989309D+00  0.17183912D+00  0.10608105D-01 -0.55557087D-02
  0.47076229D-02  0.20968658D-03  0.22381211D-03  0.19600085D-03  0.12377209D-03
  0.47669819D-03  0.50881095D-03  0.44558527D-03  0.28138154D-03 -0.27983416D-06
 -0.29868518D-06 -0.26157008D-06 -0.16517824D-06 -0.75439469D-04 -0.52820576D-03
  0.33531632D-06  0.34871378D-03  0.87886030D-03 -0.45893914D-06 -0.10149495D-01
 -0.18942959D-01 -0.32330568D-01 -0.50244930D-01 -0.67299533D-01 -0.69131197D-01
 -0.44674763D-01 -0.13238426D-01 -0.81720462D-03  0.42771512D-03 -0.35480515D-03
  0.13134368D-03  0.14019165D-03  0.12277120D-03  0.77528484D-04  0.29893817D-04
  0.31907613D-04  0.27942721D-04  0.17645480D-04  0.18331815D-07  0.19566737D-07
  0.17135343D-07  0.10820755D-07 -0.41152197D-03 -0.19351861D-03 -0.23707310D-08
  0.30724483D-03  0.96541631D-04  0.28790125D-07 -0.12148774D+00 -0.22674401D+00
 -0.38699143D+00 -0.60142331D+00 -0.80556402D+00 -0.82748873D+00 -0.53474916D+00
 -0.15846166D+00 -0.97833180D-02  0.51276433D-02 -0.43713883D-02  0.47630138D-03
  0.50838741D-03  0.44521436D-03  0.28114732D-03 -0.71653933D-04 -0.76480898D-04
 -0.66977256D-04 -0.42295302D-04  0.16738029D-06  0.17865586D-06  0.15645579D-06
  0.98799881D-07 -0.45711340D-03  0.25416967D-03 -0.27941039D-06  0.86847928D-03
 -0.17711345D-03  0.34602677D-06  0.13180592D+00  0.24600180D+00  0.41985932D+00
  0.65250330D+00  0.87398206D+00  0.89776887D+00  0.58016522D+00  0.17191976D+00
  0.10615740D-01 -0.55661594D-02  0.47475215D-02 -0.21049178D-03 -0.22467156D-03
 -0.19675350D-03 -0.12424738D-03 -0.47593274D-03 -0.50799393D-03 -0.44486978D-03
 -0.28092972D-03  0.25164591D-06  0.26859803D-06  0.23522160D-06  0.14853951D-06
  0.76984873D-04  0.52903291D-03 -0.30924160D-06 -0.35229727D-03 -0.88565168D-03
  0.44998279D-06 -0.10946828D-01 -0.20431097D-01 -0.34870422D-01 -0.54192117D-01
 -0.72586510D-01 -0.74562068D-01 -0.48185163D-01 -0.14278660D-01 -0.88052375D-03
  0.46037299D-03 -0.39891120D-03 -0.13260022D-03 -0.14153283D-03 -0.12394573D-03
 -0.78270180D-04 -0.27464756D-04 -0.29314918D-04 -0.25672199D-04 -0.16211673D-04
 -0.24023400D-07 -0.25641736D-07 -0.22455452D-07 -0.14180338D-07  0.41262843D-03
  0.19117940D-03  0.13012909D-07 -0.31228456D-03 -0.88367007D-04 -0.52483923D-07
 -0.12124626D+00 -0.22629332D+00 -0.38622221D+00 -0.60022787D+00 -0.80396281D+00
 -0.82584394D+00 -0.53368728D+00 -0.15814700D+00 -0.97621647D-02  0.51119371D-02
 -0.43311764D-02 -0.47599018D-03 -0.50805524D-03 -0.44492347D-03 -0.28096362D-03
  0.72866214D-04  0.77774845D-04  0.68110415D-04  0.43010878D-04 -0.28675630D-06
 -0.30607363D-06 -0.26804042D-06 -0.16926419D-06  0.45542146D-03 -0.25530645D-03
  0.35711011D-06 -0.86039235D-03  0.17654031D-03 -0.43275084D-06 -0.73055827D-04
 -0.13185090D-03 -0.19465599D-03  0.56510306D-03  0.24333567D-04  0.55676077D-05
  0.10048399D-04  0.14834795D-04 -0.43290451D-04 -0.13554950D-05  0.67328264D-04
  0.12151381D-03  0.17939499D-03 -0.52148634D-03 -0.22908495D-04 -0.73003914D-04
 -0.13175720D-03 -0.19451767D-03  0.56587224D-03  0.24954022D-04  0.61435492D-05
  0.11087856D-04  0.16369381D-04 -0.47127642D-04 -0.23831986D-05  0.67235894D-04
  0.12134710D-03  0.17914888D-03 -0.51997082D-03 -0.22172025D-04
MO    5     MO 0.0        OCC NO =    2.0000000  ORB. ENERGY =   -9.894333
 -0.63697618D-01 -0.11888486D+00 -0.20290469D+00 -0.31533414D+00 -0.42236780D+00
 -0.43386321D+00 -0.28037445D+00 -0.83083070D-01 -0.51315109D-02  0.26915057D-02
 -0.22877783D-02 -0.22587106D-03 -0.24108686D-03 -0.21112901D-03 -0.13332534D-03
 -0.15943526D-03 -0.17017561D-03 -0.14902931D-03 -0.94110150D-04  0.33291731D-07
  0.35534427D-07  0.31118861D-07  0.19651173D-07  0.47408447D-03  0.39607101D-05
  0.15761945D-06 -0.47290183D-03 -0.25191819D-03 -0.14265109D-07  0.14631001D+00
  0.27307215D+00  0.46606117D+00  0.72430558D+00  0.97015614D+00  0.99656049D+00
  0.64401052D+00  0.19083897D+00  0.11779587D-01 -0.61685685D-02  0.52373773D-02
 -0.27841743D-03 -0.29717302D-03 -0.26024581D-03 -0.16434199D-03  0.50144429D-03
  0.53522407D-03  0.46871625D-03  0.29598847D-03 -0.46691642D-06 -0.49837023D-06
 -0.43644193D-06 -0.27560764D-06  0.24628379D-03 -0.49213461D-03  0.44792505D-06
 -0.50044561D-03  0.91234986D-03 -0.79394578D-06 -0.81962905D-01 -0.15297509D+00
 -0.26108759D+00 -0.40575618D+00 -0.54348173D+00 -0.55827345D+00 -0.36077233D+00
 -0.10690729D+00 -0.66020911D-02  0.34615077D-02 -0.29416913D-02  0.32295136D-03
  0.34470697D-03  0.30187312D-03  0.19062911D-03  0.10699565D-03  0.11420341D-03
  0.10001230D-03  0.63156523D-04  0.49395569D-08  0.52723100D-08  0.46171641D-08
  0.29156816D-08 -0.30913209D-03 -0.37622462D-03  0.17223324D-06  0.58456558D-03
  0.26106857D-03 -0.25319466D-07 -0.63892981D-01 -0.11924949D+00 -0.20352700D+00
 -0.31630128D+00 -0.42366321D+00 -0.43519388D+00 -0.28123435D+00 -0.83337883D-01
 -0.51471715D-02  0.26999264D-02 -0.23004096D-02  0.22653461D-03  0.24179511D-03
  0.21174926D-03  0.13371702D-03  0.16005494D-03  0.17083703D-03  0.14960854D-03
  0.94475930D-04 -0.55162814D-07 -0.58878855D-07 -0.51562473D-07 -0.32561059D-07
 -0.47455914D-03 -0.45512883D-05 -0.13194919D-06  0.47436978D-03  0.25406111D-03
 -0.32188296D-07  0.14636500D+00  0.27317478D+00  0.46623634D+00  0.72457782D+00
  0.97052078D+00  0.99693505D+00  0.64425224D+00  0.19091060D+00  0.11784533D-01
 -0.61725127D-02  0.52482085D-02  0.27910747D-03  0.29790953D-03  0.26089081D-03
  0.16474929D-03 -0.50114090D-03 -0.53490024D-03 -0.46843266D-03 -0.29580939D-03
  0.29642240D-06  0.31639089D-06  0.27707564D-06  0.17496981D-06 -0.24688819D-03
  0.49230733D-03 -0.32616141D-06  0.50176427D-03 -0.91406223D-03  0.69436685D-06
 -0.82006240D-01 -0.15305597D+00 -0.26122563D+00 -0.40597071D+00 -0.54376907D+00
 -0.55856862D+00 -0.36096289D+00 -0.10696376D+00 -0.66060636D-02  0.34648511D-02
 -0.29513751D-02 -0.32275791D-03 -0.34450049D-03 -0.30169230D-03 -0.19051492D-03
 -0.10652835D-03 -0.11370463D-03 -0.99575509D-04 -0.62880693D-04 -0.10395896D-06
 -0.11096215D-06 -0.97173810D-07 -0.61364050D-07  0.30947540D-03  0.37591016D-03
 -0.99292306D-07 -0.58659331D-03 -0.26098476D-03 -0.62971670D-07  0.35243162D-04
  0.63606733D-04  0.93904796D-04 -0.27346932D-03 -0.12057509D-04 -0.81142301D-04
 -0.14644534D-03 -0.21620226D-03  0.62753346D-03  0.26878169D-04  0.45403302D-04
  0.81943718D-04  0.12097631D-03 -0.35183975D-03 -0.15486362D-04  0.35396853D-04
  0.63884114D-04  0.94314302D-04 -0.27442968D-03 -0.12297121D-04 -0.81160572D-04
 -0.14647831D-03 -0.21625094D-03  0.62789781D-03  0.27064066D-04  0.45396193D-04
  0.81930887D-04  0.12095737D-03 -0.35214735D-03 -0.15690801D-04
MO    6     MO 0.0        OCC NO =    2.0000000  ORB. ENERGY =   -9.894166
 -0.10372457D+00 -0.19359093D+00 -0.33040797D+00 -0.51348697D+00 -0.68777951D+00
 -0.70649853D+00 -0.45636880D+00 -0.13523529D+00 -0.86812598D-02  0.55475551D-02
 -0.11698025D-01 -0.13292953D-03 -0.14188432D-03 -0.12425354D-03 -0.78464564D-04
 -0.23004986D-03 -0.24554716D-03 -0.21503507D-03 -0.13579197D-03  0.13236455D-06
  0.14128128D-06  0.12372544D-06  0.78131072D-07  0.27256012D-03  0.47150095D-03
 -0.22844100D-06 -0.11915813D-02 -0.20657619D-02  0.93509642D-06  0.10397315D+00
  0.19405489D+00  0.33119982D+00  0.51471759D+00  0.68942784D+00  0.70819172D+00
  0.45746461D+00  0.13556001D+00  0.86992433D-02 -0.55528004D-02  0.11693329D-01
 -0.13318321D-03 -0.14215509D-03 -0.12449067D-03 -0.78614305D-04  0.23092295D-03
  0.24647907D-03  0.21585118D-03  0.13630733D-03 -0.20794687D-06 -0.22195521D-06
 -0.19437469D-06 -0.12274520D-06  0.27279079D-03 -0.47123529D-03  0.41754167D-06
 -0.11922976D-02  0.20650444D-02 -0.18013109D-05 -0.10335615D+00 -0.19290332D+00
 -0.32923440D+00 -0.51166313D+00 -0.68533660D+00 -0.70398913D+00 -0.45474742D+00
 -0.13475483D+00 -0.86512047D-02  0.55310528D-02 -0.11682224D-01  0.26418001D-03
  0.28197649D-03  0.24693763D-03  0.15593803D-03  0.94781013D-06  0.10116593D-05
  0.88594889D-06  0.55946568D-06  0.79417905D-07  0.84767890D-07  0.74234494D-07
  0.46878157D-07 -0.54301277D-03 -0.12294009D-05 -0.15622510D-06  0.23817307D-02
  0.30697900D-06  0.62450493D-06  0.10317891D+00  0.19257252D+00  0.32866982D+00
  0.51078572D+00  0.68416137D+00  0.70278191D+00  0.45396685D+00  0.13452353D+00
  0.86375032D-02 -0.55248817D-02  0.11678843D-01 -0.13247750D-03 -0.14140184D-03
 -0.12383102D-03 -0.78197745D-04 -0.22793250D-03 -0.24328716D-03 -0.21305590D-03
 -0.13454215D-03  0.11871461D-06  0.12671182D-06  0.11096640D-06  0.70073900D-07
  0.27194903D-03  0.46957533D-03 -0.21661042D-06 -0.11908067D-02 -0.20618542D-02
  0.96611628D-06 -0.10381548D+00 -0.19376061D+00 -0.33069757D+00 -0.51393704D+00
 -0.68838234D+00 -0.70711777D+00 -0.45677075D+00 -0.13535440D+00 -0.86863444D-02
  0.55457661D-02 -0.11687130D-01 -0.13292944D-03 -0.14188423D-03 -0.12425346D-03
 -0.78464511D-04  0.23024444D-03  0.24575485D-03  0.21521695D-03  0.13590682D-03
 -0.13287586D-06 -0.14182704D-06 -0.12420338D-06 -0.78432887D-07  0.27118354D-03
 -0.47137884D-03  0.34683988D-06 -0.11916330D-02  0.20639790D-02 -0.15894925D-05
  0.10369134D+00  0.19352892D+00  0.33030213D+00  0.51332249D+00  0.68755919D+00
  0.70627221D+00  0.45622267D+00  0.13519199D+00  0.86784120D-02 -0.55456014D-02
  0.11694986D-01  0.26560694D-03  0.28349954D-03  0.24827142D-03  0.15678031D-03
  0.70188948D-08  0.74917224D-08  0.65607887D-08  0.41430563D-08  0.13608872D-06
  0.14525633D-06  0.12720655D-06  0.80329347D-07 -0.54436539D-03  0.14784279D-06
 -0.21005109D-06  0.23842760D-02 -0.16212224D-05  0.91841595D-06  0.57799144D-04
  0.10431569D-03  0.15400482D-03 -0.57582653D-03 -0.22156886D-03 -0.58040074D-04
 -0.10475052D-03 -0.15464677D-03  0.57682592D-03  0.22174386D-03  0.57610694D-04
  0.10397558D-03  0.15350270D-03 -0.57422756D-03 -0.22148099D-03 -0.57493975D-04
 -0.10376492D-03 -0.15319170D-03  0.57350697D-03  0.22150822D-03  0.57956854D-04
  0.10460032D-03  0.15442504D-03 -0.57612943D-03 -0.22168064D-03 -0.57791497D-04
 -0.10430189D-03 -0.15398444D-03  0.57568494D-03  0.22157479D-03
MO    7     MO 0.0        OCC NO =    2.0000000  ORB. ENERGY =   -0.782351
 -0.24590525D-01 -0.45895614D-01 -0.78331546D-01 -0.12173504D+00 -0.16305549D+00
 -0.16749330D+00 -0.17526817D+00 -0.51937035D-01  0.70858245D-01  0.33672313D-01
  0.13455748D-02  0.32673431D-01  0.34874475D-01  0.30540916D-01  0.19286208D-01
  0.56625929D-01  0.60440533D-01  0.52930093D-01  0.33424694D-01 -0.27374009D-04
 -0.29218058D-04 -0.25587374D-04 -0.16158108D-04  0.48297599D-02  0.83655526D-02
 -0.41138864D-05 -0.38058031D-04 -0.66213255D-04  0.10300844D-06 -0.24591186D-01
 -0.45896848D-01 -0.78333651D-01 -0.12173831D+00 -0.16305987D+00 -0.16749780D+00
 -0.17527291D+00 -0.51938441D-01  0.70860256D-01  0.33672853D-01  0.13448140D-02
 -0.32666134D-01 -0.34866687D-01 -0.30534095D-01 -0.19281901D-01  0.56629457D-01
  0.60444298D-01  0.52933391D-01  0.33426776D-01 -0.51462897D-04 -0.54929694D-04
 -0.48104040D-04 -0.30377102D-04 -0.48291914D-02  0.83657359D-02 -0.75267308D-05
  0.38252551D-04 -0.65545355D-04  0.30964409D-07 -0.24589874D-01 -0.45894398D-01
 -0.78329471D-01 -0.12173182D+00 -0.16305117D+00 -0.16748886D+00 -0.17526343D+00
 -0.51935632D-01  0.70856195D-01  0.33671450D-01  0.13471498D-02 -0.65372570D-01
 -0.69776391D-01 -0.61105863D-01 -0.38587591D-01 -0.26908551D-04 -0.28721245D-04
 -0.25152296D-04 -0.15883362D-04 -0.17407049D-04 -0.18579674D-04 -0.16270933D-04
 -0.10274892D-04 -0.96595641D-02 -0.34847914D-06 -0.26409392D-05  0.75321926D-04
  0.61417734D-07  0.44182229D-07 -0.24589890D-01 -0.45894429D-01 -0.78329523D-01
 -0.12173190D+00 -0.16305127D+00 -0.16748898D+00 -0.17526361D+00 -0.51935683D-01
  0.70856335D-01  0.33671611D-01  0.13435887D-02 -0.32717192D-01 -0.34921185D-01
 -0.30581822D-01 -0.19312039D-01 -0.56599054D-01 -0.60411848D-01 -0.52904973D-01
 -0.33408831D-01  0.26109925D-04  0.27868819D-04  0.24405794D-04  0.15411955D-04
 -0.48307536D-02 -0.83648206D-02  0.39409798D-05  0.38052655D-04  0.66864664D-04
 -0.10207055D-06 -0.24591176D-01 -0.45896828D-01 -0.78333618D-01 -0.12173826D+00
 -0.16305980D+00 -0.16749773D+00 -0.17527284D+00 -0.51938420D-01  0.70860242D-01
  0.33672791D-01  0.13467288D-02  0.32707822D-01  0.34911183D-01  0.30573062D-01
  0.19306508D-01 -0.56605179D-01 -0.60418386D-01 -0.52910698D-01 -0.33412446D-01
  0.40524914D-04  0.43254874D-04  0.37879953D-04  0.23920718D-04  0.48301489D-02
 -0.83652378D-02  0.59168667D-05 -0.37736382D-04  0.65149755D-04  0.66929469D-07
 -0.24590450D-01 -0.45895474D-01 -0.78331307D-01 -0.12173467D+00 -0.16305499D+00
 -0.16749279D+00 -0.17526758D+00 -0.51936860D-01  0.70857924D-01  0.33672235D-01
  0.13451056D-02  0.65374237D-01  0.69778171D-01  0.61107421D-01  0.38588575D-01
 -0.24693976D-04 -0.26357485D-04 -0.23082261D-04 -0.14576160D-04  0.26655730D-04
  0.28451393D-04  0.24915976D-04  0.15734128D-04  0.96596507D-02 -0.96235228D-06
  0.40250618D-05 -0.75958283D-04 -0.33159674D-06 -0.14883797D-06  0.53924423D-02
  0.97322607D-02  0.14368069D-01  0.71277892D-02  0.75903905D-04  0.53924858D-02
  0.97323392D-02  0.14368185D-01  0.71280737D-02  0.76545113D-04  0.53923395D-02
  0.97320752D-02  0.14367795D-01  0.71279832D-02  0.76697562D-04  0.53923273D-02
  0.97320531D-02  0.14367763D-01  0.71275855D-02  0.75692102D-04  0.53924873D-02
  0.97323419D-02  0.14368189D-01  0.71281678D-02  0.76794387D-04  0.53924367D-02
  0.97322506D-02  0.14368054D-01  0.71279963D-02  0.76421975D-04
MO    8     MO 0.0        OCC NO =    2.0000000  ORB. ENERGY =   -0.679938
  0.27424897D-01  0.51185669D-01  0.87360256D-01  0.13576656D+00  0.18184971D+00
  0.18679904D+00  0.19699951D+00  0.58376660D-01 -0.81354986D-01 -0.43287236D-01
 -0.26001175D-02 -0.71400548D-01 -0.76210444D-01 -0.66740410D-01 -0.42145737D-01