 xx
GAUSSIAN             32 MOL ORBITALS    250 PRIMITIVES       14 NUCLEI
  N    1    (CENTRE  1)   1.38901789 -4.61361778 -1.67945885  CHARGE =  7.0
  H    2    (CENTRE  2)   3.96673411 -2.94292068 -3.30494854  CHARGE =  1.0
  C    3    (CENTRE  3)   0.31780677 -2.04291205 -1.29373368  CHARGE =  6.0
  H    4    (CENTRE  4)  -1.00231901 -1.68908991 -2.86540581  CHARGE =  1.0
  C    5    (CENTRE  5)  -1.09084332 -1.65585439  1.21236860  CHARGE =  6.0
  C    6    (CENTRE  6)   2.51567204 -0.13502672 -1.60695233  CHARGE =  6.0
  H    7    (CENTRE  7)  -2.26136301 -3.31356844  1.62772902  CHARGE =  1.0
  H    8    (CENTRE  8)   0.23720994 -1.34348684  2.77194648  CHARGE =  1.0
  S    9    (CENTRE  9)  -3.25594736  1.22107487  1.15370711  CHARGE = 16.0
  O   10    (CENTRE 10)   4.46313963 -1.10023468 -3.02685535  CHARGE =  8.0
  H   11    (CENTRE 11)  -5.51827371 -0.14750879  1.12412749  CHARGE =  1.0
  O   12    (CENTRE 12)   2.54034671  2.01507390 -0.69852054  CHARGE =  8.0
  H   13    (CENTRE 13)   0.16257973 -5.87915017 -2.46251466  CHARGE =  1.0
  H   14    (CENTRE 14)   2.22197020 -5.34911361 -0.09579233  CHARGE =  1.0
CENTRE ASSIGNMENTS    1  1  1  1  1  1  1  1  1  1  1  1  1  1  1  1  1  1  1  1
CENTRE ASSIGNMENTS    1  1  1  1  1  1  1  1  1  2  2  2  2  2  3  3  3  3  3  3
CENTRE ASSIGNMENTS    3  3  3  3  3  3  3  3  3  3  3  3  3  3  3  3  3  3  3  3
CENTRE ASSIGNMENTS    3  3  3  4  4  4  4  4  5  5  5  5  5  5  5  5  5  5  5  5
CENTRE ASSIGNMENTS    5  5  5  5  5  5  5  5  5  5  5  5  5  5  5  5  5  6  6  6
CENTRE ASSIGNMENTS    6  6  6  6  6  6  6  6  6  6  6  6  6  6  6  6  6  6  6  6
CENTRE ASSIGNMENTS    6  6  6  6  6  6  7  7  7  7  7  8  8  8  8  8  9  9  9  9
CENTRE ASSIGNMENTS    9  9  9  9  9  9  9  9  9  9  9  9  9  9  9  9  9  9  9  9
CENTRE ASSIGNMENTS    9  9  9  9  9  9  9  9  9  9  9  9  9  9  9  9  9 10 10 10
CENTRE ASSIGNMENTS   10 10 10 10 10 10 10 10 10 10 10 10 10 10 10 10 10 10 10 10
CENTRE ASSIGNMENTS   10 10 10 10 10 10 11 11 11 11 11 12 12 12 12 12 12 12 12 12
CENTRE ASSIGNMENTS   12 12 12 12 12 12 12 12 12 12 12 12 12 12 12 12 12 12 12 12
CENTRE ASSIGNMENTS   13 13 13 13 13 14 14 14 14 14
TYPE ASSIGNMENTS      1  1  1  1  1  1  1  1  1  1  1  2  2  2  2  3  3  3  3  4
TYPE ASSIGNMENTS      4  4  4  2  3  4  2  3  4  1  1  1  1  1  1  1  1  1  1  1
TYPE ASSIGNMENTS      1  1  1  1  1  2  2  2  2  3  3  3  3  4  4  4  4  2  3  4
TYPE ASSIGNMENTS      2  3  4  1  1  1  1  1  1  1  1  1  1  1  1  1  1  1  1  2
TYPE ASSIGNMENTS      2  2  2  3  3  3  3  4  4  4  4  2  3  4  2  3  4  1  1  1
TYPE ASSIGNMENTS      1  1  1  1  1  1  1  1  2  2  2  2  3  3  3  3  4  4  4  4
TYPE ASSIGNMENTS      2  3  4  2  3  4  1  1  1  1  1  1  1  1  1  1  1  1  1  1
TYPE ASSIGNMENTS      1  1  1  1  1  1  1  1  1  1  2  2  2  2  2  3  3  3  3  3
TYPE ASSIGNMENTS      4  4  4  4  4  2  3  4  2  3  4  2  3  4  2  3  4  1  1  1
TYPE ASSIGNMENTS      1  1  1  1  1  1  1  1  2  2  2  2  3  3  3  3  4  4  4  4
TYPE ASSIGNMENTS      2  3  4  2  3  4  1  1  1  1  1  1  1  1  1  1  1  1  1  1
TYPE ASSIGNMENTS      1  1  2  2  2  2  3  3  3  3  4  4  4  4  2  3  4  2  3  4
TYPE ASSIGNMENTS      1  1  1  1  1  1  1  1  1  1
EXPONENTS  0.1973080D+05 0.2957896D+04 0.6732213D+03 0.1906825D+03 0.6229544D+02
EXPONENTS  0.2265416D+02 0.8979148D+01 0.3686300D+01 0.8466008D+00 0.3364713D+00
EXPONENTS  0.1364765D+00 0.4920038D+02 0.1134679D+02 0.3427397D+01 0.1178553D+01
EXPONENTS  0.4920038D+02 0.1134679D+02 0.3427397D+01 0.1178553D+01 0.4920038D+02
EXPONENTS  0.1134679D+02 0.3427397D+01 0.1178553D+01 0.4164220D+00 0.4164220D+00
EXPONENTS  0.4164220D+00 0.1426083D+00 0.1426083D+00 0.1426083D+00 0.3406134D+02
EXPONENTS  0.5123575D+01 0.1164663D+01 0.3272304D+00 0.1030724D+00 0.1357535D+05
EXPONENTS  0.2035233D+04 0.4632256D+03 0.1312002D+03 0.4285302D+02 0.1558419D+02
EXPONENTS  0.6206714D+01 0.2576490D+01 0.5769634D+00 0.2297283D+00 0.9516444D-01
EXPONENTS  0.3469723D+02 0.7958262D+01 0.2378083D+01 0.8143321D+00 0.3469723D+02
EXPONENTS  0.7958262D+01 0.2378083D+01 0.8143321D+00 0.3469723D+02 0.7958262D+01
EXPONENTS  0.2378083D+01 0.8143321D+00 0.2888755D+00 0.2888755D+00 0.2888755D+00
EXPONENTS  0.1005682D+00 0.1005682D+00 0.1005682D+00 0.3406134D+02 0.5123575D+01
EXPONENTS  0.1164663D+01 0.3272304D+00 0.1030724D+00 0.1357535D+05 0.2035233D+04
EXPONENTS  0.4632256D+03 0.1312002D+03 0.4285302D+02 0.1558419D+02 0.6206714D+01
EXPONENTS  0.2576490D+01 0.5769634D+00 0.2297283D+00 0.9516444D-01 0.3469723D+02
EXPONENTS  0.7958262D+01 0.2378083D+01 0.8143321D+00 0.3469723D+02 0.7958262D+01
EXPONENTS  0.2378083D+01 0.8143321D+00 0.3469723D+02 0.7958262D+01 0.2378083D+01
EXPONENTS  0.8143321D+00 0.2888755D+00 0.2888755D+00 0.2888755D+00 0.1005682D+00
EXPONENTS  0.1005682D+00 0.1005682D+00 0.1357535D+05 0.2035233D+04 0.4632256D+03
EXPONENTS  0.1312002D+03 0.4285302D+02 0.1558419D+02 0.6206714D+01 0.2576490D+01
EXPONENTS  0.5769634D+00 0.2297283D+00 0.9516444D-01 0.3469723D+02 0.7958262D+01
EXPONENTS  0.2378083D+01 0.8143321D+00 0.3469723D+02 0.7958262D+01 0.2378083D+01
EXPONENTS  0.8143321D+00 0.3469723D+02 0.7958262D+01 0.2378083D+01 0.8143321D+00
EXPONENTS  0.2888755D+00 0.2888755D+00 0.2888755D+00 0.1005682D+00 0.1005682D+00
EXPONENTS  0.1005682D+00 0.3406134D+02 0.5123575D+01 0.1164663D+01 0.3272304D+00
EXPONENTS  0.1030724D+00 0.3406134D+02 0.5123575D+01 0.1164663D+01 0.3272304D+00
EXPONENTS  0.1030724D+00 0.6070093D+05 0.9102611D+04 0.2071417D+04 0.5860248D+03
EXPONENTS  0.1905540D+03 0.6763038D+02 0.2512731D+02 0.1125746D+03 0.3479555D+02
EXPONENTS  0.6511556D+01 0.3239903D+01 0.1547716D+01 0.4054103D+00 0.1455065D+00
EXPONENTS  0.5643672D+03 0.1334262D+03 0.4246827D+02 0.1561653D+02 0.6109399D+01
EXPONENTS  0.5643672D+03 0.1334262D+03 0.4246827D+02 0.1561653D+02 0.6109399D+01
EXPONENTS  0.5643672D+03 0.1334262D+03 0.4246827D+02 0.1561653D+02 0.6109399D+01
EXPONENTS  0.2440416D+01 0.2440416D+01 0.2440416D+01 0.8388220D+00 0.8388220D+00
EXPONENTS  0.8388220D+00 0.3128875D+00 0.3128875D+00 0.3128875D+00 0.1077011D+00
EXPONENTS  0.1077011D+00 0.1077011D+00 0.2703238D+05 0.4052387D+04 0.9223272D+03
EXPONENTS  0.2612407D+03 0.8535464D+02 0.3103504D+02 0.1226086D+02 0.4998708D+01
EXPONENTS  0.1170311D+01 0.4647474D+00 0.1850454D+00 0.6327495D+02 0.1462705D+02
EXPONENTS  0.4450122D+01 0.1527580D+01 0.6327495D+02 0.1462705D+02 0.4450122D+01
EXPONENTS  0.1527580D+01 0.6327495D+02 0.1462705D+02 0.4450122D+01 0.1527580D+01
EXPONENTS  0.5293512D+00 0.5293512D+00 0.5293512D+00 0.1747842D+00 0.1747842D+00
EXPONENTS  0.1747842D+00 0.3406134D+02 0.5123575D+01 0.1164663D+01 0.3272304D+00
EXPONENTS  0.1030724D+00 0.2703238D+05 0.4052387D+04 0.9223272D+03 0.2612407D+03
EXPONENTS  0.8535464D+02 0.3103504D+02 0.1226086D+02 0.4998708D+01 0.1170311D+01
EXPONENTS  0.4647474D+00 0.1850454D+00 0.6327495D+02 0.1462705D+02 0.4450122D+01
EXPONENTS  0.1527580D+01 0.6327495D+02 0.1462705D+02 0.4450122D+01 0.1527580D+01
EXPONENTS  0.6327495D+02 0.1462705D+02 0.4450122D+01 0.1527580D+01 0.5293512D+00
EXPONENTS  0.5293512D+00 0.5293512D+00 0.1747842D+00 0.1747842D+00 0.1747842D+00
EXPONENTS  0.3406134D+02 0.5123575D+01 0.1164663D+01 0.3272304D+00 0.1030724D+00
EXPONENTS  0.3406134D+02 0.5123575D+01 0.1164663D+01 0.3272304D+00 0.1030724D+00
MO    1     MO 0.0        OCC NO =    2.0000000  ORB. ENERGY =  -88.057681
  0.11812796D-05  0.22053095D-05  0.37684726D-05  0.58820157D-05  0.79760669D-05
  0.84099514D-05 -0.13868548D-04 -0.42614253D-05  0.26774513D-04 -0.54221835D-04
  0.12226189D-03 -0.17561801D-04 -0.19225544D-04 -0.16918385D-04 -0.10411906D-04
  0.17861454D-04  0.19553586D-04  0.17207060D-04  0.10589562D-04  0.11528813D-05
  0.12621012D-05  0.11106429D-05  0.68351143D-06  0.16226316D-04 -0.19323001D-04
  0.22995652D-05 -0.30369623D-04  0.33649266D-04  0.64941877D-05  0.23631957D-05
  0.42650873D-05  0.62966942D-05 -0.13206426D-04 -0.35498278D-06  0.10276750D-05
  0.19180467D-05  0.32735931D-05  0.50874905D-05  0.68143340D-05  0.69997970D-05
 -0.11236945D-04 -0.33298324D-05  0.13310741D-04 -0.40610536D-04 -0.69361653D-04
  0.15055497D-04  0.16069710D-04  0.14072862D-04  0.88868367D-05 -0.16379272D-04
 -0.17482661D-04 -0.15310237D-04 -0.96682240D-05  0.91431400D-05  0.97590673D-05
  0.85463897D-05  0.53969385D-05 -0.69106983D-05  0.10672826D-04 -0.11731271D-04
  0.26379493D-04  0.63210211D-04 -0.11997955D-04  0.52529591D-05  0.94805219D-05
  0.13996419D-04 -0.48123346D-04  0.18279291D-04  0.11613542D-04  0.21675448D-04
  0.36994196D-04  0.57492674D-04  0.77007373D-04  0.79103252D-04 -0.12648701D-03
 -0.37481766D-04  0.21550331D-03 -0.31336812D-03  0.51841650D-03 -0.61154412D-04
 -0.65274077D-04 -0.57163014D-04 -0.36097730D-04  0.12471748D-03  0.13311907D-03
  0.11657748D-03  0.73617224D-04 -0.14514264D-04 -0.15492017D-04 -0.13566953D-04
 -0.85673620D-05  0.18344418D-04 -0.70298427D-04  0.22227515D-04 -0.41863782D-04
  0.61603801D-04 -0.13663348D-04  0.12457157D-05  0.23249965D-05  0.39681476D-05
  0.61668976D-05  0.82601235D-05  0.84849359D-05 -0.13491051D-04 -0.39977893D-05
  0.23917299D-04 -0.62247710D-05 -0.90048927D-04 -0.41476533D-04 -0.44270599D-04
 -0.38769462D-04 -0.24482432D-04  0.22741594D-05  0.24273581D-05  0.21257306D-05
  0.13423724D-05  0.21229350D-04  0.22659465D-04  0.19843763D-04  0.12531089D-04
  0.44677660D-04 -0.46618528D-05 -0.23376266D-04  0.34836888D-04  0.11232476D-04
 -0.38264480D-05  0.25995573D-06  0.46916718D-06  0.69264755D-06 -0.24800972D-04
 -0.78677619D-04  0.67555573D-05  0.12192406D-04  0.18000066D-04 -0.40120639D-04
 -0.77114125D-04  0.14426332D+01  0.26883800D+01  0.45542903D+01  0.69130726D+01
  0.86746946D+01  0.75121012D+01  0.27888658D+01 -0.79437124D-01 -0.14223705D+00
  0.11270799D+00 -0.13079961D-01 -0.38647705D-02  0.15713421D-02 -0.68609146D-03
 -0.42898100D-03 -0.56120470D-03 -0.61350353D-03 -0.50188404D-03 -0.26286276D-03
 -0.19345244D-02 -0.25307979D-02 -0.27666437D-02 -0.22632866D-02 -0.11854008D-02
 -0.25592182D-04 -0.33480394D-04 -0.36600441D-04 -0.29941437D-04 -0.15681887D-04
  0.22691682D-04  0.37569103D-03  0.32512710D-04  0.20009631D-04 -0.33244747D-04
 -0.20560356D-04 -0.16276476D-05 -0.30132858D-04  0.74750995D-05 -0.38983785D-04
  0.90365124D-04  0.39507809D-05  0.19817888D-06  0.37004036D-06  0.63286595D-06
  0.99077369D-06  0.13551600D-05  0.14557943D-05 -0.25752423D-05 -0.81368336D-06
  0.58811013D-05 -0.51303800D-05 -0.18055154D-04 -0.23426385D-04 -0.25934247D-04
 -0.22585210D-04 -0.13117199D-04  0.17167174D-05  0.19004969D-05  0.16550749D-05
  0.96124618D-06  0.77821271D-05  0.86152261D-05  0.75026928D-05  0.43574672D-05
  0.24330256D-04 -0.57691005D-05 -0.10158048D-04 -0.58025922D-05 -0.10317032D-04
 -0.62199228D-05 -0.37587526D-05 -0.67837833D-05 -0.10015131D-04  0.41085970D-04
  0.33807951D-04 -0.18393028D-06 -0.34343532D-06 -0.58736437D-06 -0.91953938D-06
 -0.12577272D-05 -0.13511261D-05  0.26042567D-05  0.82285086D-06 -0.11455606D-04
  0.36081161D-04 -0.26669523D-04 -0.35118004D-04 -0.38877487D-04 -0.33857015D-04
 -0.19663718D-04  0.15194746D-05  0.16821387D-05  0.14649146D-05  0.85080350D-06
 -0.29265640D-05 -0.32398611D-05 -0.28214793D-05 -0.16386788D-05  0.20748877D-04
 -0.11350066D-04  0.40662076D-05 -0.81444099D-05  0.95647441D-05 -0.72407017D-05
  0.25489587D-05  0.46003516D-05  0.67916564D-05 -0.20124684D-04  0.91687950D-05
  0.34168221D-05  0.61666684D-05  0.91040635D-05 -0.24374451D-04  0.23839826D-04
MO    2     MO 0.0        OCC NO =    2.0000000  ORB. ENERGY =  -18.791778
 -0.19222613D-06 -0.35886349D-06 -0.61323240D-06 -0.95716301D-06 -0.12979218D-05
 -0.13685265D-05  0.43611386D-05  0.13400585D-05 -0.74663238D-04  0.27872214D-03
 -0.55028431D-03  0.12795692D-03  0.14007910D-03  0.12326893D-03  0.75862117D-04
  0.37932435D-04  0.41526020D-04  0.36542694D-04  0.22489091D-04 -0.37625566D-04
 -0.41190080D-04 -0.36247068D-04 -0.22307157D-04 -0.87971539D-04  0.78358742D-04
  0.28384079D-04  0.61842284D-04 -0.13691176D-03 -0.73519021D-04  0.16433740D-03
  0.29659555D-03  0.43787415D-03 -0.39665957D-03 -0.96002170D-04  0.15645140D-05
  0.29199999D-05  0.49836593D-05  0.77451041D-05  0.10374020D-04  0.10656365D-04
 -0.29745627D-04 -0.88144908D-05  0.15767905D-03 -0.19326776D-03  0.84106940D-03
  0.16038093D-03  0.17118498D-03  0.14991326D-03  0.94668353D-04 -0.47529542D-04
 -0.50731368D-04 -0.44427406D-04 -0.28055353D-04 -0.85586099D-04 -0.91351604D-04
 -0.80000104D-04 -0.50519069D-04 -0.17368828D-03  0.11499995D-04  0.87702794D-04
  0.30540942D-03 -0.13759723D-03  0.12413953D-04 -0.74279884D-05 -0.13406007D-04
 -0.19791747D-04  0.56619714D-04  0.11874569D-03 -0.78564009D-06 -0.14663141D-05
 -0.25026062D-05 -0.38893000D-05 -0.52094424D-05 -0.53512257D-05  0.12158008D-04
  0.36027700D-05  0.31436007D-05  0.13645434D-04 -0.20641489D-03 -0.51888721D-05
 -0.55384203D-05 -0.48502072D-05 -0.30628454D-05 -0.97661532D-05 -0.10424050D-04
 -0.91287403D-05 -0.57646857D-05 -0.23305445D-04 -0.24875416D-04 -0.21784356D-04
 -0.13756549D-04 -0.36334344D-04  0.24750568D-04  0.65585146D-04 -0.11093649D-03
 -0.56783796D-04 -0.10319767D-04  0.14822542D-04  0.27664706D-04  0.47216258D-04
  0.73378779D-04  0.98285689D-04  0.10096069D-03 -0.26737380D-03 -0.79230600D-04
  0.19875957D-03 -0.28142517D-03 -0.10444331D-02  0.47568615D-03  0.50773073D-03
  0.44463928D-03  0.28078416D-03 -0.12699314D-03 -0.13554803D-03 -0.11870461D-03
 -0.74960484D-04 -0.27655133D-03 -0.29518120D-03 -0.25850150D-03 -0.16324048D-03
 -0.79637397D-04 -0.70555480D-04 -0.17333092D-04 -0.31161168D-03  0.49066461D-03
  0.31765324D-03  0.39600354D-05  0.71470577D-05  0.10551446D-04 -0.25861207D-04
 -0.71543827D-04  0.27494052D-05  0.49621167D-05  0.73257425D-05  0.95168926D-06
  0.89768153D-04  0.23851464D-05  0.44447748D-05  0.75297371D-05  0.11429579D-04
  0.14342118D-04  0.12419970D-04  0.46109109D-05 -0.10440630D-04 -0.18694590D-04
  0.14813507D-04 -0.12316478D-04 -0.36391820D-05  0.10433105D-05  0.48924038D-04
 -0.52386417D-04 -0.68533347D-04 -0.74919990D-04 -0.61289211D-04 -0.32100346D-04
 -0.10892724D-04 -0.14250161D-04 -0.15578137D-04 -0.12743885D-04 -0.66746351D-05
  0.44936145D-04  0.58786697D-04  0.64265046D-04  0.52572804D-04  0.27535110D-04
  0.79300271D-04  0.15261882D-04 -0.67687348D-04 -0.66058332D-04 -0.95379600D-05
  0.55309892D-04  0.54463532D-04  0.26602875D-05 -0.37315879D-04 -0.21509620D-04
 -0.15081534D-04  0.11779872D-04  0.37429155D+00  0.69887860D+00  0.11952655D+01
  0.18712298D+01  0.25594299D+01  0.27494934D+01  0.19045327D+01  0.60176341D+00
  0.29615483D-01 -0.10500316D-01  0.42100984D-02 -0.57087058D-02 -0.63198391D-02
 -0.55037222D-02 -0.31964909D-02 -0.25949690D-02 -0.28727678D-02 -0.25017909D-02
 -0.14530079D-02  0.23642949D-02  0.26173994D-02  0.22793997D-02  0.13238459D-02
  0.11012787D-02  0.30877976D-03 -0.53077895D-03 -0.56188771D-03 -0.59652355D-04
  0.31818746D-03  0.51807578D-05  0.93502133D-05  0.13804040D-04 -0.25024028D-04
 -0.28208042D-04 -0.37462887D-04 -0.69950844D-04 -0.11963427D-03 -0.18729162D-03
 -0.25617365D-03 -0.27519713D-03 -0.75183317D-04 -0.23755207D-04 -0.25404021D-03
  0.52912555D-03 -0.64817036D-03  0.23247732D-03  0.25736468D-03  0.22412971D-03
  0.13017165D-03 -0.13512296D-03 -0.14958826D-03 -0.13027107D-03 -0.75659759D-04
 -0.13021202D-03 -0.14415159D-03 -0.12553647D-03 -0.72909963D-04 -0.17209459D-03
  0.54770073D-04  0.71592988D-04  0.13225461D-03  0.27494402D-05 -0.27041163D-04
 -0.62877472D-05 -0.11348104D-04 -0.16753594D-04  0.51540468D-05 -0.34770924D-04
 -0.36476890D-05 -0.65833361D-05 -0.97192042D-05  0.47423429D-04  0.19793637D-04
MO    3     MO 0.0        OCC NO =    2.0000000  ORB. ENERGY =  -18.747810
  0.24626783D-05  0.45975296D-05  0.78563414D-05  0.12262560D-04  0.16628144D-04
  0.17532687D-04 -0.50096366D-04 -0.15393242D-04  0.13569428D-03 -0.21717253D-03
  0.20848752D-03 -0.10979058D-04 -0.12019175D-04 -0.10576815D-04 -0.65091798D-05
  0.56958672D-04  0.62354735D-04  0.54871861D-04  0.33769221D-04 -0.33809255D-04
 -0.37012225D-04 -0.32570576D-04 -0.20044572D-04  0.11788824D-04 -0.10452125D-03
  0.25555715D-04 -0.74536788D-04  0.10026875D-04 -0.61166303D-04 -0.16607903D-04
 -0.29973885D-04 -0.44251471D-04  0.16902841D-04 -0.12139773D-03  0.16745698D-05
  0.31254074D-05  0.53342351D-05  0.82899338D-05  0.11103780D-04  0.11405988D-04
 -0.29360355D-04 -0.87003237D-05  0.66509204D-04 -0.72579485D-04  0.26861894D-03
 -0.30000106D-04 -0.32021062D-04 -0.28042072D-04 -0.17708219D-04  0.12760656D-03
  0.13620277D-03  0.11927799D-03  0.75322566D-04  0.88396950D-04  0.94351808D-04
  0.82627499D-04  0.52178235D-04  0.54504611D-04 -0.79030833D-04 -0.80421139D-04
 -0.10545731D-03  0.16531354D-03  0.31075410D-03 -0.39896775D-05 -0.72005557D-05
 -0.10630427D-04  0.22037217D-04  0.14240854D-03 -0.11005402D-06 -0.20540419D-06
 -0.35057005D-06 -0.54482086D-06 -0.72974903D-06 -0.74961032D-06  0.34122636D-05
  0.10111525D-05 -0.71746502D-04  0.26694306D-03 -0.91152535D-03  0.49171193D-04
  0.52483609D-04  0.45961910D-04  0.29024373D-04  0.21889572D-04  0.23364163D-04
  0.20460894D-04  0.12920799D-04 -0.44266133D-04 -0.47248120D-04 -0.41376991D-04
 -0.26129054D-04  0.19773502D-04  0.40172468D-04 -0.27955792D-04 -0.92547766D-04
 -0.14691417D-04  0.69525677D-04  0.80684181D-05  0.15058849D-04  0.25701430D-04
  0.39942588D-04  0.53500273D-04  0.54956369D-04 -0.17721287D-03 -0.52513308D-04
  0.49660036D-03 -0.64023306D-03 -0.65813589D-03  0.58028850D-04  0.61937962D-04
  0.54241450D-04  0.34252799D-04  0.72859823D-03  0.77768023D-03  0.68104441D-03
  0.43007106D-03  0.28335913D-03  0.30244761D-03  0.26486498D-03  0.16725893D-03
 -0.17079543D-04  0.54913430D-04  0.25555808D-04  0.14111745D-03 -0.60053196D-03
 -0.37338137D-03 -0.93591858D-05 -0.16891425D-04 -0.24937389D-04  0.66649793D-04
  0.71853817D-04 -0.14694760D-04 -0.26521050D-04 -0.39153934D-04  0.10043619D-03
  0.23741214D-03 -0.16922566D-05 -0.31535590D-05 -0.53423337D-05 -0.81092636D-05
 -0.10175705D-04 -0.88119441D-05 -0.32714322D-05  0.69035081D-05  0.12361156D-04
 -0.97949230D-05  0.11214430D-04  0.33135571D-05 -0.48495772D-04  0.14034499D-03
 -0.34328527D-04 -0.44909521D-04 -0.49094652D-04 -0.40162478D-04 -0.21035178D-04
  0.87959689D-04  0.11507128D-03  0.12579480D-03  0.10290797D-03  0.53898254D-04
 -0.33757477D-04 -0.44162457D-04 -0.48277969D-04 -0.39494381D-04 -0.20685260D-04
  0.63016327D-04 -0.12632454D-03  0.45411560D-04 -0.76091368D-04  0.88936266D-04
 -0.24883222D-04  0.71090262D-04 -0.51754299D-04  0.37273799D-05  0.27810534D-04
  0.41931060D-05 -0.10753983D-05  0.31365449D-04  0.58565684D-04  0.10016266D-03
  0.15680814D-03  0.21447897D-03  0.23040619D-03  0.24798280D-03  0.78353590D-04
 -0.20268545D-03  0.46612224D-03 -0.59639202D-03  0.79139493D-04  0.87611602D-04
  0.76297816D-04  0.44312788D-04  0.19746274D-03  0.21860170D-03  0.19037241D-03
  0.11056584D-03  0.92070364D-04  0.10192676D-03  0.88764376D-04  0.51553205D-04
 -0.10960995D-03 -0.10099271D-03 -0.26531909D-04  0.12649821D-03  0.69533734D-05
 -0.34676110D-04 -0.46769820D-05 -0.84410004D-05 -0.12461738D-04  0.23910896D-04
  0.12178287D-04  0.37427315D+00  0.69884423D+00  0.11952067D+01  0.18711378D+01
  0.25593040D+01  0.27493582D+01  0.19045073D+01  0.60175537D+00  0.29825525D-01
 -0.10797624D-01  0.44323307D-02 -0.16781260D-03 -0.18577742D-03 -0.16178692D-03
 -0.93963759D-04 -0.67151097D-02 -0.74339814D-02 -0.64739890D-02 -0.37600093D-02
 -0.27479864D-02 -0.30421662D-02 -0.26493139D-02 -0.15386874D-02  0.63018167D-04
  0.13425987D-02  0.50778245D-03 -0.73984030D-04 -0.63008820D-03 -0.19399323D-03
  0.96778236D-05  0.17466502D-04  0.25786394D-04 -0.74461212D-04  0.38375149D-05
  0.35516874D-05  0.64100728D-05  0.94634097D-05  0.75450388D-05  0.94960018D-05
MO    4     MO 0.0        OCC NO =    2.0000000  ORB. ENERGY =  -14.031777
  0.31199909D+00  0.58246546D+00  0.99532749D+00  0.15535556D+01  0.21066356D+01
  0.22212330D+01  0.14949624D+01  0.45936104D+00  0.24535261D-01 -0.99663225D-02
  0.48884084D-02 -0.25762646D-02 -0.28203308D-02 -0.24818773D-02 -0.15273960D-02
  0.90981596D-04  0.99600871D-04  0.87648279D-04  0.53940471D-04  0.24032298D-02
  0.26309033D-02  0.23151820D-02  0.14248085D-02  0.57301006D-03 -0.52980408D-03
 -0.47494729D-03 -0.26873470D-03  0.57560902D-03  0.20991655D-03 -0.17483660D-04
 -0.31554448D-04 -0.46584911D-04 -0.12883801D-03 -0.20883592D-03 -0.35801753D-05
 -0.66820183D-05 -0.11404419D-04 -0.17723606D-04 -0.23739518D-04 -0.24385627D-04
  0.69103715D-04  0.20477432D-04 -0.46517500D-03  0.10172393D-02 -0.31399471D-02
  0.95166307D-04  0.10157718D-03  0.88955036D-04  0.56173996D-04 -0.31623535D-03
 -0.33753853D-03 -0.29559545D-03 -0.18666484D-03 -0.88618736D-04 -0.94588535D-04
 -0.82834809D-04 -0.52309149D-04  0.13261283D-03 -0.21442062D-03  0.43908083D-04
 -0.23966829D-03  0.46035603D-03 -0.88782906D-04 -0.20002306D-04 -0.36100091D-04
 -0.53295800D-04 -0.17889975D-04  0.31188842D-03  0.76219825D-06  0.14225624D-05
  0.24279338D-05  0.37732515D-05  0.50540036D-05  0.51915564D-05 -0.17291584D-04
 -0.51239973D-05  0.14754895D-03 -0.21742394D-03  0.83046394D-03  0.14942437D-04
  0.15949034D-04  0.13967181D-04  0.88201006D-05 -0.13135516D-03 -0.14020390D-03
 -0.12278193D-03 -0.77535258D-04 -0.26631143D-05 -0.28425149D-05 -0.24892994D-05
 -0.15719615D-05 -0.58566308D-04  0.13960090D-03  0.64215125D-04  0.81961916D-04
 -0.87252457D-04 -0.18911363D-03 -0.29069571D-05 -0.54255278D-05 -0.92599257D-05
 -0.14390849D-04 -0.19275525D-04 -0.19800139D-04  0.52026574D-04  0.15416981D-04
 -0.22325692D-04  0.10972783D-03  0.67932629D-03  0.52850662D-04  0.56410946D-04
  0.49401229D-04  0.31196261D-04 -0.86512627D-04 -0.92340548D-04 -0.80866160D-04
 -0.51065972D-04 -0.30900408D-04 -0.32982013D-04 -0.28883614D-04 -0.18239642D-04
  0.12760015D-04  0.28902490D-03  0.61103654D-04 -0.23379693D-05 -0.20456329D-03
  0.14688132D-04  0.32431162D-04  0.58531646D-04  0.86412271D-04 -0.15731818D-04
 -0.47473739D-04 -0.18060544D-05 -0.32595605D-05 -0.48122006D-05  0.55275932D-04
  0.54124316D-04  0.97235222D-05  0.18120006D-04  0.30696467D-04  0.46594944D-04
  0.58468489D-04  0.50632470D-04  0.18797293D-04 -0.39521083D-04 -0.70764928D-04
  0.56073805D-04 -0.54102840D-04 -0.15985908D-04  0.97314466D-04 -0.14197183D-03
  0.30189117D-04  0.39494231D-04  0.43174709D-04  0.35319597D-04  0.18498709D-04
 -0.92976898D-04 -0.12163493D-03 -0.13297012D-03 -0.10877783D-03 -0.56972603D-04
  0.28345930D-04  0.37082923D-04  0.40538691D-04  0.33163170D-04  0.17369276D-04
 -0.50003178D-04  0.14810534D-03 -0.42362137D-04  0.48597483D-04 -0.12897170D-03
  0.29992208D-04 -0.36831156D-04  0.86425706D-04 -0.14187315D-04 -0.23268272D-04
  0.99701045D-05  0.38750424D-04 -0.32478154D-06 -0.60643331D-06 -0.10371598D-05
 -0.16237098D-05 -0.22208772D-05 -0.23857997D-05  0.11578832D-04  0.36584919D-05
 -0.60631104D-04  0.17247261D-03 -0.12971153D-03 -0.40783172D-05 -0.45149127D-05
 -0.39318763D-05 -0.22835831D-05 -0.53305446D-04 -0.59011947D-04 -0.51391397D-04
 -0.29847461D-04 -0.10279779D-03 -0.11380259D-03 -0.99106613D-04 -0.57559843D-04
 -0.48721160D-04  0.41734658D-04  0.13019064D-03  0.37738745D-04 -0.72618606D-04
 -0.13310723D-03  0.61551148D-06  0.11108729D-05  0.16400197D-05  0.19724280D-04
 -0.17224246D-04  0.10185909D-05  0.19019168D-05  0.32527759D-05  0.50923340D-05
  0.69651905D-05  0.74824262D-05 -0.45060933D-04 -0.14237624D-04  0.12322918D-03
 -0.20232645D-03 -0.25430063D-04  0.11356670D-04  0.12572434D-04  0.10948884D-04
  0.63589706D-05 -0.58038096D-04 -0.64251241D-04 -0.55954111D-04 -0.32497426D-04
 -0.10851003D-03 -0.12012634D-03 -0.10461374D-03 -0.60758311D-04 -0.11190659D-04
  0.12961724D-03  0.12085201D-03  0.40206184D-05  0.42620935D-04 -0.18262044D-04
  0.79475907D-04  0.14343783D-03  0.21176218D-03  0.57711274D-04 -0.25766564D-03
  0.94315088D-04  0.17021954D-03  0.25130092D-03 -0.42295646D-05 -0.31958508D-03
MO    5     MO 0.0        OCC NO =    2.0000000  ORB. ENERGY =  -10.021888
 -0.18456339D-05 -0.34455806D-05 -0.58878702D-05 -0.91900747D-05 -0.12461825D-04
 -0.13139727D-04  0.86713475D-04  0.26644678D-04 -0.15251932D-03  0.25122775D-03
 -0.59171145D-03 -0.86600914D-04 -0.94805178D-04 -0.83428093D-04 -0.51343286D-04
 -0.17861116D-03 -0.19553215D-03 -0.17206734D-03 -0.10589362D-03  0.11423435D-04
  0.12505651D-04  0.11004912D-04  0.67726389D-05  0.51212452D-04  0.32829559D-04
 -0.24021441D-04 -0.36801079D-04 -0.22889396D-03 -0.92305495D-04 -0.25413831D-04
 -0.45866792D-04 -0.67714713D-04  0.17323195D-04  0.43104463D-04  0.18209808D-03
  0.33986680D-03  0.58006179D-03  0.90147393D-03  0.12074606D-02  0.12403236D-02
  0.10235941D-02  0.30332057D-03 -0.23809610D-03  0.63049149D-03 -0.34393406D-03
 -0.52814625D-05 -0.56372481D-05 -0.49367544D-05 -0.31174989D-05  0.91643834D-04
  0.97817418D-04  0.85662466D-04  0.54094779D-04  0.43462743D-04  0.46390610D-04
  0.40626037D-04  0.25654836D-04  0.35501115D-03  0.17880909D-03 -0.10525794D-03
 -0.24158056D-03 -0.26615426D-03  0.27467096D-03 -0.44139606D-04 -0.79663004D-04
 -0.11760922D-03  0.13473453D-04 -0.52223960D-04 -0.11134202D-04 -0.20780810D-04
 -0.35467289D-04 -0.55119708D-04 -0.73828953D-04 -0.75838326D-04  0.16535477D-04
  0.48999408D-05 -0.80334245D-04  0.78786154D-04 -0.58905043D-03 -0.86330176D-04
 -0.92145806D-04 -0.80695618D-04 -0.50958276D-04 -0.94784184D-04 -0.10116932D-03
 -0.88597853D-04 -0.55948439D-04  0.54315680D-04  0.57974654D-04  0.50770629D-04
  0.32061019D-04 -0.38792580D-04  0.71314382D-04  0.19469679D-04 -0.15600298D-03
 -0.66131917D-04  0.17809462D-03  0.25378636D+00  0.47366540D+00  0.80842023D+00
  0.12563657D+01  0.16828131D+01  0.17286136D+01  0.11175269D+01  0.33115559D+00
  0.19608475D-01 -0.90245738D-02  0.18375911D-02  0.86508854D-03  0.92336521D-03
  0.80862634D-03  0.51063745D-03  0.74707596D-03  0.79740271D-03  0.69831614D-03
  0.44097794D-03 -0.12222901D-03 -0.13046296D-03 -0.11425142D-03 -0.72148347D-04
 -0.95218236D-04 -0.41943369D-04 -0.25188945D-04 -0.60656104D-03 -0.51097964D-03
  0.72922557D-04  0.31686182D-05  0.57187109D-05  0.84427285D-05 -0.13534198D-04
 -0.14327377D-03  0.13202374D-05  0.23827597D-05  0.35177497D-05  0.16060296D-04
 -0.52086784D-04  0.10116932D-04  0.18853134D-04  0.31938434D-04  0.48480158D-04
  0.60834102D-04  0.52681040D-04  0.19557824D-04 -0.38516317D-04 -0.68965833D-04
  0.54648210D-04 -0.57158481D-04 -0.16888766D-04  0.74511460D-04  0.69862720D-05
  0.12083681D-03  0.15808203D-03  0.17281373D-03  0.14137238D-03  0.74044065D-04
  0.10356730D-04  0.13548958D-04  0.14811589D-04  0.12116801D-04  0.63461986D-05
 -0.70334441D-06 -0.92013445D-06 -0.10058820D-05 -0.82287407D-06 -0.43098192D-06
 -0.19073399D-03 -0.16337565D-04 -0.16674330D-05  0.13947050D-03  0.13575896D-04
  0.11174472D-04 -0.38881729D-04 -0.20932879D-04 -0.27702020D-04  0.15766278D-04
  0.92953496D-05  0.35340791D-05 -0.90801271D-05 -0.16954448D-04 -0.28996547D-04
 -0.45395105D-04 -0.62090497D-04 -0.66701343D-04 -0.32452197D-03 -0.10253720D-03
  0.82661107D-03 -0.85990732D-03  0.13148772D-02 -0.27183091D-03 -0.30093119D-03
 -0.26207023D-03 -0.15220701D-03  0.43708451D-03  0.48387566D-03  0.42139003D-03
  0.24473790D-03  0.33295713D-03  0.36860115D-03  0.32100158D-03  0.18643358D-03
  0.10681718D-03 -0.27076392D-03 -0.18283259D-03 -0.35974269D-03  0.39763891D-03
  0.37219131D-03 -0.17100966D-05 -0.30863763D-05 -0.45565229D-05 -0.19464897D-05
  0.16689325D-04 -0.43847645D-04 -0.81872488D-04 -0.14002340D-03 -0.21921152D-03
 -0.29983303D-03 -0.32209866D-03 -0.44713535D-03 -0.14127859D-03  0.84103054D-03
 -0.10322822D-02  0.18258902D-02  0.25674929D-03  0.28423504D-03  0.24753015D-03
  0.14376232D-03 -0.24831120D-05 -0.27489363D-05 -0.23939505D-05 -0.13903756D-05
 -0.85061025D-04 -0.94167052D-04 -0.82006723D-04 -0.47628448D-04 -0.21365701D-03
  0.27639027D-03  0.18724743D-03  0.23888754D-03 -0.59073840D-03 -0.34143071D-03
  0.85440631D-05  0.15420295D-04  0.22765508D-04 -0.40266374D-04 -0.46903518D-04
 -0.59839026D-05 -0.10799726D-04 -0.15944005D-04  0.13272561D-03 -0.55007558D-04
MO    6     MO 0.0        OCC NO =    2.0000000  ORB. ENERGY =   -9.970430
 -0.93215098D-05 -0.17402158D-04 -0.29737121D-04 -0.46415148D-04 -0.62939364D-04
 -0.66363158D-04  0.65507059D-04  0.20128526D-04 -0.16251548D-03  0.68646914D-03
 -0.77325706D-03 -0.30821469D-04 -0.33741386D-04 -0.29692254D-04 -0.18273196D-04
  0.10976965D-03  0.12016884D-03  0.10574799D-03  0.65079390D-04 -0.64683821D-04
 -0.70811738D-04 -0.62313982D-04 -0.38349248D-04 -0.15905449D-03  0.38420182D-03
  0.13738802D-03  0.13461282D-04 -0.19117639D-03 -0.10215583D-04 -0.70901337D-06
 -0.12796248D-05 -0.18891539D-05 -0.12379419D-03 -0.10710304D-03  0.25385352D+00
  0.47379074D+00  0.80863415D+00  0.12566982D+01  0.16832584D+01  0.17290710D+01
  0.11171424D+01  0.33104165D+00  0.20701472D-01 -0.10634465D-01  0.82781781D-02
  0.58267939D-03  0.62193158D-03  0.54464934D-03  0.34393927D-03 -0.41163386D-03
 -0.43936356D-03 -0.38476753D-03 -0.24297590D-03  0.10257019D-04  0.10947983D-04
  0.95875686D-05  0.60544300D-05 -0.19045301D-03 -0.18851323D-03 -0.21197121D-03
  0.27142748D-03  0.44045488D-03  0.30914764D-03 -0.36363508D-04 -0.65628730D-04
 -0.96889938D-04  0.60413261D-03 -0.12474254D-02  0.49832257D-03  0.93006635D-03
  0.15873747D-02  0.24669387D-02  0.33042900D-02  0.33942216D-02  0.25046406D-02
  0.74219757D-03 -0.50759399D-03  0.12130206D-02 -0.25737778D-02  0.30075190D-04
  0.32101204D-04  0.28112256D-04  0.17752539D-04  0.42324084D-04  0.45175244D-04
  0.39561695D-04  0.24982717D-04 -0.84340523D-04 -0.90022120D-04 -0.78835824D-04
 -0.49783840D-04  0.27557871D-03 -0.12163977D-03 -0.39477371D-03 -0.38165109D-03
  0.20455387D-03  0.41955705D-03 -0.20544628D-03 -0.38344375D-03 -0.65443599D-03
 -0.10170589D-02 -0.13622785D-02 -0.13993550D-02 -0.66978618D-03 -0.19847705D-03
 -0.50248528D-03  0.13262020D-02 -0.29266073D-02 -0.79414956D-04 -0.84764742D-04
 -0.74231737D-04 -0.46876416D-04  0.24014322D-04  0.25632046D-04  0.22446966D-04
  0.14174979D-04  0.29484018D-04  0.31470208D-04  0.27559669D-04  0.17403587D-04
 -0.39609230D-03 -0.37473145D-03  0.69525963D-04  0.58599953D-03  0.53291417D-03