 xx
GAUSSIAN             47 MOL ORBITALS    446 PRIMITIVES       22 NUCLEI
  C    1    (CENTRE  1)  27.08629184 27.40172879 14.91666044  CHARGE =  6.0
  C    2    (CENTRE  2)  24.61418712 26.54521831 15.05127528  CHARGE =  6.0
  C    3    (CENTRE  3)  23.90640879 24.31580991 13.74031929  CHARGE =  6.0
  C    4    (CENTRE  4)  25.81375376 23.02724298 12.31066266  CHARGE =  6.0
  C    5    (CENTRE  5)  28.83869091 26.00754614 13.46017466  CHARGE =  6.0
  C    6    (CENTRE  6)  21.37058276 23.34721897 13.81691520  CHARGE =  6.0
  C    7    (CENTRE  7)  25.13523059 20.73414497 10.94768749  CHARGE =  6.0
  C    8    (CENTRE  8)  22.58137084 19.83808657 11.07857685  CHARGE =  6.0
  C    9    (CENTRE  9)  20.73287605 21.19223307 12.53587913  CHARGE =  6.0
  C   10    (CENTRE 10)  21.96733965 17.60068463  9.73440445  CHARGE =  6.0
  C   11    (CENTRE 11)  23.82006068 16.36395042  8.35563965  CHARGE =  6.0
  C   12    (CENTRE 12)  26.28773040 17.38685301  8.33595211  CHARGE =  6.0
  H   13    (CENTRE 13)  19.95882137 24.37014399 14.92219899  CHARGE =  1.0
  H   14    (CENTRE 14)  27.68680379 29.10776839 15.90266669  CHARGE =  1.0
  H   15    (CENTRE 15)  30.80083703 26.62754335 13.31256902  CHARGE =  1.0
  H   16    (CENTRE 16)  18.80268211 20.46328416 12.59974537  CHARGE =  1.0
  H   17    (CENTRE 17)  23.40616045 14.64170552  7.30399946  CHARGE =  1.0
  H   18    (CENTRE 18)  27.79283201 16.46197852  7.27036046  CHARGE =  1.0
  N   19    (CENTRE 19)  26.95788821 19.49810852  9.57817107  CHARGE =  7.0
  N   20    (CENTRE 20)  28.25693338 23.88817482 12.18752940  CHARGE =  7.0
  H   21    (CENTRE 21)  23.19478911 27.56011771 16.15324795  CHARGE =  1.0
  H   22    (CENTRE 22)  20.03453846 16.88072054  9.80512416  CHARGE =  1.0
CENTRE ASSIGNMENTS    1  1  1  1  1  1  1  1  1  1  1  1  1  1  1  1  1  1  1  1
CENTRE ASSIGNMENTS    1  1  1  1  1  1  1  1  1  2  2  2  2  2  2  2  2  2  2  2
CENTRE ASSIGNMENTS    2  2  2  2  2  2  2  2  2  2  2  2  2  2  2  2  2  2  3  3
CENTRE ASSIGNMENTS    3  3  3  3  3  3  3  3  3  3  3  3  3  3  3  3  3  3  3  3
CENTRE ASSIGNMENTS    3  3  3  3  3  3  3  4  4  4  4  4  4  4  4  4  4  4  4  4
CENTRE ASSIGNMENTS    4  4  4  4  4  4  4  4  4  4  4  4  4  4  4  4  5  5  5  5
CENTRE ASSIGNMENTS    5  5  5  5  5  5  5  5  5  5  5  5  5  5  5  5  5  5  5  5
CENTRE ASSIGNMENTS    5  5  5  5  5  6  6  6  6  6  6  6  6  6  6  6  6  6  6  6
CENTRE ASSIGNMENTS    6  6  6  6  6  6  6  6  6  6  6  6  6  6  7  7  7  7  7  7
CENTRE ASSIGNMENTS    7  7  7  7  7  7  7  7  7  7  7  7  7  7  7  7  7  7  7  7
CENTRE ASSIGNMENTS    7  7  7  8  8  8  8  8  8  8  8  8  8  8  8  8  8  8  8  8
CENTRE ASSIGNMENTS    8  8  8  8  8  8  8  8  8  8  8  8  9  9  9  9  9  9  9  9
CENTRE ASSIGNMENTS    9  9  9  9  9  9  9  9  9  9  9  9  9  9  9  9  9  9  9  9
CENTRE ASSIGNMENTS    9 10 10 10 10 10 10 10 10 10 10 10 10 10 10 10 10 10 10 10
CENTRE ASSIGNMENTS   10 10 10 10 10 10 10 10 10 10 11 11 11 11 11 11 11 11 11 11
CENTRE ASSIGNMENTS   11 11 11 11 11 11 11 11 11 11 11 11 11 11 11 11 11 11 11 12
CENTRE ASSIGNMENTS   12 12 12 12 12 12 12 12 12 12 12 12 12 12 12 12 12 12 12 12
CENTRE ASSIGNMENTS   12 12 12 12 12 12 12 12 13 13 13 13 13 14 14 14 14 14 15 15
CENTRE ASSIGNMENTS   15 15 15 16 16 16 16 16 17 17 17 17 17 18 18 18 18 18 19 19
CENTRE ASSIGNMENTS   19 19 19 19 19 19 19 19 19 19 19 19 19 19 19 19 19 19 19 19
CENTRE ASSIGNMENTS   19 19 19 19 19 19 19 20 20 20 20 20 20 20 20 20 20 20 20 20
CENTRE ASSIGNMENTS   20 20 20 20 20 20 20 20 20 20 20 20 20 20 20 20 21 21 21 21
CENTRE ASSIGNMENTS   21 22 22 22 22 22
TYPE ASSIGNMENTS      1  1  1  1  1  1  1  1  1  1  1  2  2  2  2  3  3  3  3  4
TYPE ASSIGNMENTS      4  4  4  2  3  4  2  3  4  1  1  1  1  1  1  1  1  1  1  1
TYPE ASSIGNMENTS      2  2  2  2  3  3  3  3  4  4  4  4  2  3  4  2  3  4  1  1
TYPE ASSIGNMENTS      1  1  1  1  1  1  1  1  1  2  2  2  2  3  3  3  3  4  4  4
TYPE ASSIGNMENTS      4  2  3  4  2  3  4  1  1  1  1  1  1  1  1  1  1  1  2  2
TYPE ASSIGNMENTS      2  2  3  3  3  3  4  4  4  4  2  3  4  2  3  4  1  1  1  1
TYPE ASSIGNMENTS      1  1  1  1  1  1  1  2  2  2  2  3  3  3  3  4  4  4  4  2
TYPE ASSIGNMENTS      3  4  2  3  4  1  1  1  1  1  1  1  1  1  1  1  2  2  2  2
TYPE ASSIGNMENTS      3  3  3  3  4  4  4  4  2  3  4  2  3  4  1  1  1  1  1  1
TYPE ASSIGNMENTS      1  1  1  1  1  2  2  2  2  3  3  3  3  4  4  4  4  2  3  4
TYPE ASSIGNMENTS      2  3  4  1  1  1  1  1  1  1  1  1  1  1  2  2  2  2  3  3
TYPE ASSIGNMENTS      3  3  4  4  4  4  2  3  4  2  3  4  1  1  1  1  1  1  1  1
TYPE ASSIGNMENTS      1  1  1  2  2  2  2  3  3  3  3  4  4  4  4  2  3  4  2  3
TYPE ASSIGNMENTS      4  1  1  1  1  1  1  1  1  1  1  1  2  2  2  2  3  3  3  3
TYPE ASSIGNMENTS      4  4  4  4  2  3  4  2  3  4  1  1  1  1  1  1  1  1  1  1
TYPE ASSIGNMENTS      1  2  2  2  2  3  3  3  3  4  4  4  4  2  3  4  2  3  4  1
TYPE ASSIGNMENTS      1  1  1  1  1  1  1  1  1  1  2  2  2  2  3  3  3  3  4  4
TYPE ASSIGNMENTS      4  4  2  3  4  2  3  4  1  1  1  1  1  1  1  1  1  1  1  1
TYPE ASSIGNMENTS      1  1  1  1  1  1  1  1  1  1  1  1  1  1  1  1  1  1  1  1
TYPE ASSIGNMENTS      1  1  1  1  1  1  1  1  1  2  2  2  2  3  3  3  3  4  4  4
TYPE ASSIGNMENTS      4  2  3  4  2  3  4  1  1  1  1  1  1  1  1  1  1  1  2  2
TYPE ASSIGNMENTS      2  2  3  3  3  3  4  4  4  4  2  3  4  2  3  4  1  1  1  1
TYPE ASSIGNMENTS      1  1  1  1  1  1
EXPONENTS  0.1357535D+05 0.2035233D+04 0.4632256D+03 0.1312002D+03 0.4285302D+02
EXPONENTS  0.1558419D+02 0.6206714D+01 0.2576490D+01 0.5769634D+00 0.2297283D+00
EXPONENTS  0.9516444D-01 0.3469723D+02 0.7958262D+01 0.2378083D+01 0.8143321D+00
EXPONENTS  0.3469723D+02 0.7958262D+01 0.2378083D+01 0.8143321D+00 0.3469723D+02
EXPONENTS  0.7958262D+01 0.2378083D+01 0.8143321D+00 0.2888755D+00 0.2888755D+00
EXPONENTS  0.2888755D+00 0.1005682D+00 0.1005682D+00 0.1005682D+00 0.1357535D+05
EXPONENTS  0.2035233D+04 0.4632256D+03 0.1312002D+03 0.4285302D+02 0.1558419D+02
EXPONENTS  0.6206714D+01 0.2576490D+01 0.5769634D+00 0.2297283D+00 0.9516444D-01
EXPONENTS  0.3469723D+02 0.7958262D+01 0.2378083D+01 0.8143321D+00 0.3469723D+02
EXPONENTS  0.7958262D+01 0.2378083D+01 0.8143321D+00 0.3469723D+02 0.7958262D+01
EXPONENTS  0.2378083D+01 0.8143321D+00 0.2888755D+00 0.2888755D+00 0.2888755D+00
EXPONENTS  0.1005682D+00 0.1005682D+00 0.1005682D+00 0.1357535D+05 0.2035233D+04
EXPONENTS  0.4632256D+03 0.1312002D+03 0.4285302D+02 0.1558419D+02 0.6206714D+01
EXPONENTS  0.2576490D+01 0.5769634D+00 0.2297283D+00 0.9516444D-01 0.3469723D+02
EXPONENTS  0.7958262D+01 0.2378083D+01 0.8143321D+00 0.3469723D+02 0.7958262D+01
EXPONENTS  0.2378083D+01 0.8143321D+00 0.3469723D+02 0.7958262D+01 0.2378083D+01
EXPONENTS  0.8143321D+00 0.2888755D+00 0.2888755D+00 0.2888755D+00 0.1005682D+00
EXPONENTS  0.1005682D+00 0.1005682D+00 0.1357535D+05 0.2035233D+04 0.4632256D+03
EXPONENTS  0.1312002D+03 0.4285302D+02 0.1558419D+02 0.6206714D+01 0.2576490D+01
EXPONENTS  0.5769634D+00 0.2297283D+00 0.9516444D-01 0.3469723D+02 0.7958262D+01
EXPONENTS  0.2378083D+01 0.8143321D+00 0.3469723D+02 0.7958262D+01 0.2378083D+01
EXPONENTS  0.8143321D+00 0.3469723D+02 0.7958262D+01 0.2378083D+01 0.8143321D+00
EXPONENTS  0.2888755D+00 0.2888755D+00 0.2888755D+00 0.1005682D+00 0.1005682D+00
EXPONENTS  0.1005682D+00 0.1357535D+05 0.2035233D+04 0.4632256D+03 0.1312002D+03
EXPONENTS  0.4285302D+02 0.1558419D+02 0.6206714D+01 0.2576490D+01 0.5769634D+00
EXPONENTS  0.2297283D+00 0.9516444D-01 0.3469723D+02 0.7958262D+01 0.2378083D+01
EXPONENTS  0.8143321D+00 0.3469723D+02 0.7958262D+01 0.2378083D+01 0.8143321D+00
EXPONENTS  0.3469723D+02 0.7958262D+01 0.2378083D+01 0.8143321D+00 0.2888755D+00
EXPONENTS  0.2888755D+00 0.2888755D+00 0.1005682D+00 0.1005682D+00 0.1005682D+00
EXPONENTS  0.1357535D+05 0.2035233D+04 0.4632256D+03 0.1312002D+03 0.4285302D+02
EXPONENTS  0.1558419D+02 0.6206714D+01 0.2576490D+01 0.5769634D+00 0.2297283D+00
EXPONENTS  0.9516444D-01 0.3469723D+02 0.7958262D+01 0.2378083D+01 0.8143321D+00
EXPONENTS  0.3469723D+02 0.7958262D+01 0.2378083D+01 0.8143321D+00 0.3469723D+02
EXPONENTS  0.7958262D+01 0.2378083D+01 0.8143321D+00 0.2888755D+00 0.2888755D+00
EXPONENTS  0.2888755D+00 0.1005682D+00 0.1005682D+00 0.1005682D+00 0.1357535D+05
EXPONENTS  0.2035233D+04 0.4632256D+03 0.1312002D+03 0.4285302D+02 0.1558419D+02
EXPONENTS  0.6206714D+01 0.2576490D+01 0.5769634D+00 0.2297283D+00 0.9516444D-01
EXPONENTS  0.3469723D+02 0.7958262D+01 0.2378083D+01 0.8143321D+00 0.3469723D+02
EXPONENTS  0.7958262D+01 0.2378083D+01 0.8143321D+00 0.3469723D+02 0.7958262D+01
EXPONENTS  0.2378083D+01 0.8143321D+00 0.2888755D+00 0.2888755D+00 0.2888755D+00
EXPONENTS  0.1005682D+00 0.1005682D+00 0.1005682D+00 0.1357535D+05 0.2035233D+04
EXPONENTS  0.4632256D+03 0.1312002D+03 0.4285302D+02 0.1558419D+02 0.6206714D+01
EXPONENTS  0.2576490D+01 0.5769634D+00 0.2297283D+00 0.9516444D-01 0.3469723D+02
EXPONENTS  0.7958262D+01 0.2378083D+01 0.8143321D+00 0.3469723D+02 0.7958262D+01
EXPONENTS  0.2378083D+01 0.8143321D+00 0.3469723D+02 0.7958262D+01 0.2378083D+01
EXPONENTS  0.8143321D+00 0.2888755D+00 0.2888755D+00 0.2888755D+00 0.1005682D+00
EXPONENTS  0.1005682D+00 0.1005682D+00 0.1357535D+05 0.2035233D+04 0.4632256D+03
EXPONENTS  0.1312002D+03 0.4285302D+02 0.1558419D+02 0.6206714D+01 0.2576490D+01
EXPONENTS  0.5769634D+00 0.2297283D+00 0.9516444D-01 0.3469723D+02 0.7958262D+01
EXPONENTS  0.2378083D+01 0.8143321D+00 0.3469723D+02 0.7958262D+01 0.2378083D+01
EXPONENTS  0.8143321D+00 0.3469723D+02 0.7958262D+01 0.2378083D+01 0.8143321D+00
EXPONENTS  0.2888755D+00 0.2888755D+00 0.2888755D+00 0.1005682D+00 0.1005682D+00
EXPONENTS  0.1005682D+00 0.1357535D+05 0.2035233D+04 0.4632256D+03 0.1312002D+03
EXPONENTS  0.4285302D+02 0.1558419D+02 0.6206714D+01 0.2576490D+01 0.5769634D+00
EXPONENTS  0.2297283D+00 0.9516444D-01 0.3469723D+02 0.7958262D+01 0.2378083D+01
EXPONENTS  0.8143321D+00 0.3469723D+02 0.7958262D+01 0.2378083D+01 0.8143321D+00
EXPONENTS  0.3469723D+02 0.7958262D+01 0.2378083D+01 0.8143321D+00 0.2888755D+00
EXPONENTS  0.2888755D+00 0.2888755D+00 0.1005682D+00 0.1005682D+00 0.1005682D+00
EXPONENTS  0.1357535D+05 0.2035233D+04 0.4632256D+03 0.1312002D+03 0.4285302D+02
EXPONENTS  0.1558419D+02 0.6206714D+01 0.2576490D+01 0.5769634D+00 0.2297283D+00
EXPONENTS  0.9516444D-01 0.3469723D+02 0.7958262D+01 0.2378083D+01 0.8143321D+00
EXPONENTS  0.3469723D+02 0.7958262D+01 0.2378083D+01 0.8143321D+00 0.3469723D+02
EXPONENTS  0.7958262D+01 0.2378083D+01 0.8143321D+00 0.2888755D+00 0.2888755D+00
EXPONENTS  0.2888755D+00 0.1005682D+00 0.1005682D+00 0.1005682D+00 0.1357535D+05
EXPONENTS  0.2035233D+04 0.4632256D+03 0.1312002D+03 0.4285302D+02 0.1558419D+02
EXPONENTS  0.6206714D+01 0.2576490D+01 0.5769634D+00 0.2297283D+00 0.9516444D-01
EXPONENTS  0.3469723D+02 0.7958262D+01 0.2378083D+01 0.8143321D+00 0.3469723D+02
EXPONENTS  0.7958262D+01 0.2378083D+01 0.8143321D+00 0.3469723D+02 0.7958262D+01
EXPONENTS  0.2378083D+01 0.8143321D+00 0.2888755D+00 0.2888755D+00 0.2888755D+00
EXPONENTS  0.1005682D+00 0.1005682D+00 0.1005682D+00 0.3406134D+02 0.5123575D+01
EXPONENTS  0.1164663D+01 0.3272304D+00 0.1030724D+00 0.3406134D+02 0.5123575D+01
EXPONENTS  0.1164663D+01 0.3272304D+00 0.1030724D+00 0.3406134D+02 0.5123575D+01
EXPONENTS  0.1164663D+01 0.3272304D+00 0.1030724D+00 0.3406134D+02 0.5123575D+01
EXPONENTS  0.1164663D+01 0.3272304D+00 0.1030724D+00 0.3406134D+02 0.5123575D+01
EXPONENTS  0.1164663D+01 0.3272304D+00 0.1030724D+00 0.3406134D+02 0.5123575D+01
EXPONENTS  0.1164663D+01 0.3272304D+00 0.1030724D+00 0.1973080D+05 0.2957896D+04
EXPONENTS  0.6732213D+03 0.1906825D+03 0.6229544D+02 0.2265416D+02 0.8979148D+01
EXPONENTS  0.3686300D+01 0.8466008D+00 0.3364713D+00 0.1364765D+00 0.4920038D+02
EXPONENTS  0.1134679D+02 0.3427397D+01 0.1178553D+01 0.4920038D+02 0.1134679D+02
EXPONENTS  0.3427397D+01 0.1178553D+01 0.4920038D+02 0.1134679D+02 0.3427397D+01
EXPONENTS  0.1178553D+01 0.4164220D+00 0.4164220D+00 0.4164220D+00 0.1426083D+00
EXPONENTS  0.1426083D+00 0.1426083D+00 0.1973080D+05 0.2957896D+04 0.6732213D+03
EXPONENTS  0.1906825D+03 0.6229544D+02 0.2265416D+02 0.8979148D+01 0.3686300D+01
EXPONENTS  0.8466008D+00 0.3364713D+00 0.1364765D+00 0.4920038D+02 0.1134679D+02
EXPONENTS  0.3427397D+01 0.1178553D+01 0.4920038D+02 0.1134679D+02 0.3427397D+01
EXPONENTS  0.1178553D+01 0.4920038D+02 0.1134679D+02 0.3427397D+01 0.1178553D+01
EXPONENTS  0.4164220D+00 0.4164220D+00 0.4164220D+00 0.1426083D+00 0.1426083D+00
EXPONENTS  0.1426083D+00 0.3406134D+02 0.5123575D+01 0.1164663D+01 0.3272304D+00
EXPONENTS  0.1030724D+00 0.3406134D+02 0.5123575D+01 0.1164663D+01 0.3272304D+00
EXPONENTS  0.1030724D+00
MO    1     MO 0.0        OCC NO =    2.0000000  ORB. ENERGY =  -13.993661
  0.41803831D-05  0.78022428D-05  0.13316343D-04  0.20694926D-04  0.27719391D-04
  0.28473819D-04 -0.81860776D-04 -0.24257719D-04  0.33980561D-03 -0.62612354D-03
  0.10084354D-02 -0.15157847D-03 -0.16178955D-03 -0.14168532D-03 -0.89472510D-04
 -0.18409744D-03 -0.19649916D-03 -0.17208185D-03 -0.10866755D-03 -0.81231281D-04
 -0.86703424D-04 -0.75929515D-04 -0.47948542D-04  0.21564185D-03  0.30925852D-03
  0.14776794D-03 -0.10566213D-03 -0.33418911D-03 -0.19662755D-03  0.63245588D-05
  0.11804120D-04  0.20146478D-04  0.31309637D-04  0.41937046D-04  0.43078430D-04
 -0.11884776D-03 -0.35218032D-04  0.14135835D-03  0.86423623D-04 -0.16971655D-02
  0.35703644D-04  0.38108819D-04  0.33373355D-04  0.21074858D-04 -0.65217409D-04
 -0.69610778D-04 -0.60960829D-04 -0.38496003D-04 -0.54724930D-04 -0.58411474D-04
 -0.51153168D-04 -0.32302588D-04  0.13719480D-03 -0.72847807D-04 -0.89330438D-04
  0.13054717D-03  0.21011037D-03  0.10502867D-03  0.47412302D-05  0.88490045D-05
  0.15102886D-04  0.23471392D-04  0.31438271D-04  0.32293913D-04 -0.91405129D-04
 -0.27085987D-04  0.24858523D-03 -0.29724036D-03 -0.55927818D-03  0.24910994D-03
  0.26589123D-03  0.23285115D-03  0.14704260D-03  0.18823782D-03  0.20091846D-03
  0.17595200D-03  0.11111150D-03  0.55780939D-04  0.59538621D-04  0.52140254D-04
  0.32925921D-04 -0.35116585D-03 -0.33654491D-03 -0.12705257D-03  0.15925939D-03
  0.93427294D-03  0.58921835D-03  0.10779708D-04  0.20119184D-04  0.34338070D-04
  0.53364788D-04  0.71478362D-04  0.73423760D-04 -0.18565403D-03 -0.55014666D-04
  0.49290907D-03 -0.88189583D-03  0.28336162D-02  0.19056082D-03  0.20339794D-03
  0.17812338D-03  0.11248269D-03  0.52795922D-04  0.56352518D-04  0.49350062D-04
  0.31163949D-04 -0.19317346D-04 -0.20618659D-04 -0.18056550D-04 -0.11402486D-04
  0.57994309D-03  0.36223763D-03  0.78103362D-04 -0.26557840D-02 -0.15475108D-02
 -0.28214432D-03  0.52126271D-05  0.97288169D-05  0.16604490D-04  0.25805035D-04
  0.34564021D-04  0.35504736D-04 -0.67560968D-04 -0.20020272D-04  0.29778332D-03
 -0.19734428D-03 -0.10683854D-02 -0.85230529D-04 -0.90972082D-04 -0.79667742D-04
 -0.50309186D-04 -0.34918998D-03 -0.37271315D-03 -0.32639920D-03 -0.20611703D-03
 -0.21277303D-03 -0.22710647D-03 -0.19888585D-03 -0.12559394D-03 -0.14903786D-03
 -0.18204531D-03 -0.80569499D-04  0.24799701D-03  0.16479564D-03  0.40140692D-04
 -0.86968155D-06 -0.16231686D-05 -0.27703149D-05 -0.43053460D-05 -0.57667067D-05
 -0.59236568D-05  0.15129233D-04  0.44832300D-05  0.59777733D-04 -0.15292964D-03
  0.31044797D-03  0.27770344D-04  0.29641093D-04  0.25957842D-04  0.16392054D-04
 -0.17355845D-04 -0.18525021D-04 -0.16223072D-04 -0.10244668D-04 -0.19872487D-04
 -0.21211197D-04 -0.18575459D-04 -0.11730171D-04 -0.20247372D-03  0.19547246D-04
  0.72030620D-04 -0.50789745D-04 -0.31629143D-04 -0.67663649D-05 -0.73843123D-05
 -0.13782038D-04 -0.23522255D-04 -0.36555932D-04 -0.48964087D-04 -0.50296723D-04
  0.12805245D-03  0.37945650D-04 -0.32858342D-03  0.72267738D-03 -0.28801788D-02
 -0.30443738D-04 -0.32494580D-04 -0.28456750D-04 -0.17970083D-04  0.11187915D-04
  0.11941588D-04  0.10457707D-04  0.66039115D-05  0.16379165D-04  0.17482546D-04
  0.15310137D-04  0.96681605D-05 -0.31151102D-03  0.37899624D-03  0.34823499D-03
  0.13436292D-02 -0.18326971D-02 -0.16364727D-02 -0.33652012D-05 -0.62807920D-05
 -0.10719633D-04 -0.16659380D-04 -0.22314062D-04 -0.22921375D-04  0.64261841D-04
  0.19042645D-04 -0.14359074D-03  0.16281264D-03  0.61173774D-03 -0.98172884D-04
 -0.10478630D-03 -0.91765381D-04 -0.57948694D-04  0.16687726D-03  0.17811895D-03
  0.15598560D-03  0.98502959D-04  0.14201096D-03  0.15157752D-03  0.13274225D-03
  0.83825078D-04  0.67991816D-04 -0.30551961D-03 -0.22758885D-03  0.13972601D-03
  0.74497741D-03  0.46639113D-03  0.16592093D-05  0.30967385D-05  0.52853050D-05
  0.82138916D-05  0.11001927D-04  0.11301362D-04 -0.30388000D-04 -0.90048447D-05
  0.20775443D-06  0.40714126D-04 -0.49050678D-03 -0.33787969D-04 -0.36064095D-04
 -0.31582711D-04 -0.19944088D-04 -0.24268407D-04 -0.25903248D-04 -0.22684468D-04
 -0.14324959D-04 -0.67145730D-05 -0.71669001D-05 -0.62763294D-05 -0.39634237D-05
  0.17087284D-03  0.17481067D-04 -0.37664493D-04  0.39903083D-04  0.19335425D-04
  0.15740477D-05 -0.42218809D-05 -0.78796939D-05 -0.13448531D-04 -0.20900360D-04
 -0.27994556D-04 -0.28756472D-04  0.79225533D-04  0.23476820D-04 -0.90486416D-04
 -0.51817603D-04  0.10553477D-02 -0.55377867D-04 -0.59108396D-04 -0.51763490D-04
 -0.32687999D-04 -0.39519765D-04 -0.42182013D-04 -0.36940407D-04 -0.23327406D-04
 -0.10821531D-04 -0.11550523D-04 -0.10115236D-04 -0.63876454D-05 -0.10135497D-03
 -0.46797647D-04 -0.24469151D-05 -0.85176143D-05  0.16801995D-03  0.11675148D-03
 -0.26278852D-05 -0.49046697D-05 -0.83709603D-05 -0.13009308D-04 -0.17425049D-04
 -0.17899299D-04  0.51415991D-04  0.15236047D-04 -0.20768125D-03  0.37496818D-03
 -0.38861867D-03  0.88559504D-05  0.94525312D-05  0.82779443D-05  0.52274186D-05
 -0.13110612D-03 -0.13993808D-03 -0.12254914D-03 -0.77388256D-04 -0.91765470D-04
 -0.97947248D-04 -0.85776163D-04 -0.54166578D-04  0.32214718D-05  0.20946448D-03
  0.14157925D-03 -0.68413547D-04 -0.15065111D-03 -0.82648473D-04 -0.37807697D-05
 -0.70564066D-05 -0.12043400D-04 -0.18716646D-04 -0.25069625D-04 -0.25751934D-04
  0.52562681D-04  0.15575845D-04 -0.20583909D-03  0.20663278D-03  0.33347607D-03
 -0.66227287D-04 -0.70688686D-04 -0.61904794D-04 -0.39092106D-04 -0.21105213D-03
 -0.22526965D-03 -0.19727728D-03 -0.12457814D-03 -0.12441201D-03 -0.13279302D-03
 -0.11629195D-03 -0.73436914D-04  0.20798060D-04 -0.12645567D-03 -0.92060096D-04
  0.88141181D-05  0.28155447D-04  0.16597484D-04  0.21162462D-05  0.38193937D-05
  0.56387015D-05 -0.78259786D-04 -0.61536195D-04 -0.16586362D-04 -0.29935008D-04
 -0.44194076D-04 -0.57747624D-04  0.18321008D-03 -0.57273106D-05 -0.10336630D-04
 -0.15260320D-04  0.34705308D-04 -0.67024523D-04 -0.13817264D-05 -0.24937349D-05
 -0.36815862D-05  0.93710842D-04  0.90750738D-04  0.99566901D-05  0.17969799D-04
  0.26529429D-04  0.48007938D-04 -0.96060318D-04  0.85424564D-05  0.15417395D-04
  0.22761227D-04 -0.63024663D-04 -0.54272632D-04 -0.16245183D+00 -0.30327838D+00
 -0.51824756D+00 -0.80890605D+00 -0.10968840D+01 -0.11565526D+01 -0.77829111D+00
 -0.23914756D+00 -0.13398676D-01  0.65321389D-02 -0.54082351D-02  0.32642330D-02
  0.35734749D-02  0.31446404D-02  0.19352735D-02  0.11152419D-02  0.12208960D-02
  0.10743825D-02  0.66119607D-03 -0.18775694D-03 -0.20554437D-03 -0.18087804D-03
 -0.11131590D-03 -0.99372181D-03 -0.13768498D-03  0.19449067D-03  0.82255036D-03
 -0.17265411D-03 -0.35602601D-03  0.26635097D+00  0.49724581D+00  0.84970261D+00
  0.13262572D+01  0.17984169D+01  0.18962477D+01  0.12761189D+01  0.39211642D+00
  0.21796209D-01 -0.10265466D-01  0.77316410D-02 -0.39757047D-02 -0.43523489D-02
 -0.38300457D-02 -0.23570853D-02  0.26376158D-02  0.28874943D-02  0.25409808D-02
  0.15637695D-02  0.29471293D-02  0.32263300D-02  0.28391546D-02  0.17472715D-02
  0.12844207D-02 -0.54686794D-03 -0.74448204D-03 -0.11746403D-02  0.60423617D-04
  0.38179328D-03  0.35222831D-05  0.63570039D-05  0.93850623D-05  0.51057296D-04
  0.15214626D-03 -0.11892768D-05 -0.21464026D-05 -0.31688075D-05 -0.30273028D-04
 -0.90959818D-04
MO    2     MO 0.0        OCC NO =    2.0000000  ORB. ENERGY =  -13.993655
  0.23785423D-05  0.44392975D-05  0.75766943D-05  0.11774939D-04  0.15771699D-04
  0.16200951D-04 -0.46672351D-04 -0.13830369D-04  0.20630415D-03 -0.39695961D-03
  0.11096467D-02 -0.11084150D-03 -0.11830833D-03 -0.10360715D-03 -0.65426622D-04
 -0.88972160D-04 -0.94965767D-04 -0.83165165D-04 -0.52517765D-04 -0.28356025D-04
 -0.30266227D-04 -0.26505297D-04 -0.16737764D-04  0.16156913D-03  0.16503845D-03
  0.65372239D-04 -0.15726593D-03 -0.31098856D-03 -0.16587555D-03  0.30610521D-05
  0.57131299D-05  0.97507857D-05  0.15153695D-04  0.20297303D-04  0.20849726D-04
 -0.57761725D-04 -0.17116472D-04  0.76886078D-04  0.54658293D-04 -0.99080568D-03
  0.43117192D-05  0.46021781D-05  0.40303039D-05  0.25450867D-05 -0.23986164D-04
 -0.25601991D-04 -0.22420646D-04 -0.14158358D-04 -0.17563159D-04 -0.18746300D-04
 -0.16416854D-04 -0.10367039D-04  0.11526276D-03 -0.64518843D-05 -0.37826509D-04
  0.24182982D-04  0.62805052D-04  0.35710929D-04  0.18570784D-05  0.34660404D-05
  0.59156046D-05  0.91934401D-05  0.12313963D-04  0.12649107D-04 -0.37146347D-04
 -0.11007538D-04  0.16914993D-03 -0.22167685D-03  0.25023234D-03  0.69947463D-04
  0.74659472D-04  0.65382164D-04  0.41288021D-04  0.56283964D-04  0.60075532D-04
  0.52610448D-04  0.33222842D-04  0.17985305D-04  0.19196885D-04  0.16811449D-04
  0.10616220D-04 -0.15607738D-03 -0.45492640D-04  0.14342454D-04 -0.33969420D-03
  0.21713107D-03  0.24618680D-03  0.48060672D-05  0.89700158D-05  0.15309420D-04
  0.23792366D-04  0.31868193D-04  0.32735537D-04 -0.80856923D-04 -0.23960248D-04
  0.23956913D-03 -0.13412687D-03 -0.78838786D-03  0.29295237D-03  0.31268709D-03
  0.27383208D-03  0.17292155D-03  0.90827492D-04  0.96946083D-04  0.84899405D-04
  0.53612916D-04 -0.23211780D-04 -0.24775441D-04 -0.21696804D-04 -0.13701261D-04
  0.27993623D-05  0.34157768D-04  0.22428322D-04 -0.62542316D-04  0.29182724D-03
  0.21663833D-03  0.18639558D-05  0.34788762D-05  0.59375119D-05  0.92274862D-05
  0.12359566D-04  0.12695951D-04 -0.16360417D-04 -0.48480655D-05  0.12872549D-03
  0.68114784D-04 -0.13465788D-02 -0.36890846D-04 -0.39375997D-04 -0.34483071D-04
 -0.21775629D-04 -0.21567540D-03 -0.23020437D-03 -0.20159880D-03 -0.12730713D-03
 -0.13598522D-03 -0.14514586D-03 -0.12710980D-03 -0.80268256D-04 -0.87018444D-04
 -0.99128175D-04 -0.42169621D-04  0.46447105D-03  0.25840062D-03  0.40993503D-04
  0.19353975D-05  0.36122146D-05  0.61650848D-05  0.95811573D-05  0.12833283D-04
  0.13182561D-04 -0.36997735D-04 -0.10963501D-04  0.11655778D-03 -0.20809846D-03
 -0.46844605D-03  0.14460553D-04  0.15434688D-04  0.13516748D-04  0.85356580D-05
  0.29264525D-04  0.31235928D-04  0.27354501D-04  0.17274026D-04  0.15713726D-04
  0.16772281D-04  0.14688130D-04  0.92753708D-05 -0.60954504D-04 -0.62276187D-04
 -0.24681131D-04 -0.40242995D-04 -0.11645302D-03 -0.67551651D-04  0.92068531D-05
  0.17183617D-04  0.29327842D-04  0.45578394D-04  0.61049037D-04  0.62710584D-04
 -0.15685949D-03 -0.46482011D-04  0.43861519D-03 -0.52290687D-03  0.59575896D-03
  0.26953403D-03  0.28769118D-03  0.25194220D-03  0.15909836D-03 -0.15920341D-03
 -0.16992814D-03 -0.14881259D-03 -0.93973297D-04 -0.18645972D-03 -0.19902057D-03
 -0.17428995D-03 -0.11006193D-03  0.14119237D-03 -0.23214764D-03 -0.19890518D-03
 -0.94788226D-03  0.64383578D-03  0.71288297D-03  0.38211358D-05  0.71317457D-05
  0.12171984D-04  0.18916478D-04  0.25337285D-04  0.26026880D-04 -0.74862078D-04
 -0.22183802D-04  0.26417783D-03 -0.33316687D-03 -0.33365024D-04  0.88699352D-04
  0.94674581D-04  0.82910163D-04  0.52356734D-04 -0.15947793D-03 -0.17022115D-03
 -0.14906920D-03 -0.94135338D-04 -0.13424757D-03 -0.14329115D-03 -0.12548556D-03
 -0.79242567D-04 -0.17214068D-03  0.23593845D-03  0.21047012D-03 -0.57560790D-03
 -0.54971103D-03 -0.20712330D-03  0.13228031D-05  0.24688720D-05  0.42137047D-05
  0.65485177D-05  0.87712766D-05  0.90100009D-05 -0.25971857D-04 -0.76962136D-05
  0.13099918D-03 -0.25503417D-03 -0.27480864D-03  0.13846438D-04  0.14779203D-04
  0.12942715D-04  0.81731634D-05 -0.21543713D-04 -0.22995005D-04 -0.20137608D-04
 -0.12716648D-04 -0.18669437D-04 -0.19927103D-04 -0.17450929D-04 -0.11020044D-04
 -0.11265274D-03  0.69253046D-04  0.79781317D-04  0.11941266D-04  0.12213949D-03
  0.79640357D-04  0.56164416D-05  0.10482494D-04  0.17890815D-04  0.27804113D-04
  0.37241645D-04  0.38255235D-04 -0.10575470D-03 -0.31338181D-04  0.13306082D-03
  0.88168706D-04 -0.16576113D-02  0.48670556D-04  0.51949247D-04  0.45493949D-04
  0.28728861D-04  0.45124015D-04  0.48163793D-04  0.42178881D-04  0.26635438D-04
  0.16582292D-04  0.17699357D-04  0.15500006D-04  0.97880608D-05  0.17944093D-03
  0.87570003D-05 -0.46081543D-04 -0.10503096D-04 -0.15821020D-03 -0.10457229D-03
  0.40281407D-05  0.75180985D-05  0.12831385D-04  0.19941253D-04  0.26709899D-04
  0.27436851D-04 -0.78964523D-04 -0.23399475D-04  0.33896173D-03 -0.63952861D-03
  0.14480980D-02 -0.65189235D-04 -0.69580706D-04 -0.60934494D-04 -0.38479373D-04
  0.18384741D-03  0.19623229D-03  0.17184814D-03  0.10851996D-03  0.14399367D-03
  0.15369379D-03  0.13459555D-03  0.84995413D-04  0.63790741D-04 -0.31517628D-03
 -0.23294368D-03  0.69056767D-04  0.43987425D-03  0.27924445D-03  0.40422555D-05
  0.75444423D-05  0.12876346D-04  0.20011128D-04  0.26803491D-04  0.27532991D-04
 -0.45442099D-04 -0.13465810D-04  0.25075352D-03 -0.29738455D-04 -0.16862889D-02
  0.13461876D-03  0.14368735D-03  0.12583252D-03  0.79461669D-04  0.34599677D-03
  0.36930483D-03  0.32341441D-03  0.20423217D-03  0.19639742D-03  0.20962772D-03
  0.18357904D-03  0.11592787D-03 -0.39304460D-04  0.18771667D-03  0.13912065D-03
  0.32377142D-03 -0.37990880D-03 -0.35238470D-03  0.10906132D-05  0.19683348D-05
  0.29059200D-05  0.52719431D-04  0.78732220D-04 -0.10463309D-04 -0.18884143D-04
 -0.27879307D-04 -0.73016705D-05  0.14596885D-03  0.75371521D-05  0.13603025D-04
  0.20082611D-04 -0.70265490D-04 -0.24874390D-03  0.19397128D-05  0.35007867D-05
  0.51683311D-05  0.11042086D-04  0.41806717D-04 -0.16894714D-04 -0.30491520D-04
 -0.45015673D-04 -0.32928328D-04  0.21363717D-03  0.40802178D-05  0.73639625D-05
  0.10871670D-04 -0.46591033D-04 -0.25184929D-03  0.26634887D+00  0.49724188D+00
  0.84969589D+00  0.13262467D+01  0.17984027D+01  0.18962327D+01  0.12761763D+01
  0.39213405D+00  0.21592603D-01 -0.97390010D-02  0.63863311D-02 -0.52284867D-02
 -0.57238151D-02 -0.50369292D-02 -0.30998251D-02 -0.18140703D-02 -0.19859289D-02
 -0.17476077D-02 -0.10755121D-02  0.28183591D-03  0.30853605D-03  0.27151021D-03
  0.16709271D-03  0.14226546D-02  0.38548248D-03 -0.15026291D-03 -0.91442707D-03
 -0.20687759D-04  0.25109380D-03  0.16244838D+00  0.30327194D+00  0.51823657D+00
  0.80888889D+00  0.10968607D+01  0.11565281D+01  0.77838526D+00  0.23917649D+00
  0.13064697D-01 -0.56688386D-02  0.32025449D-02 -0.23584054D-02 -0.25818324D-02
 -0.22719999D-02 -0.13982333D-02  0.15874148D-02  0.17378009D-02  0.15292563D-02
  0.94113433D-03  0.17637790D-02  0.19308732D-02  0.16991590D-02  0.10456958D-02
  0.60753620D-03 -0.40440379D-03 -0.45130450D-03 -0.35814977D-03  0.16734004D-03
  0.21771562D-03  0.42423691D-05  0.76566127D-05  0.11303719D-04  0.33035738D-04
  0.96806364D-04  0.53842894D-05  0.97175464D-05  0.14346346D-04  0.52744104D-04
  0.15573297D-03
MO    3     MO 0.0        OCC NO =    2.0000000  ORB. ENERGY =   -9.941571
 -0.48790990D-05 -0.91063221D-05 -0.15542058D-04 -0.24153910D-04 -0.32352455D-04
 -0.33232978D-04 -0.19767727D-04 -0.58577500D-05  0.40368134D-04 -0.69297539D-04
  0.13735053D-02  0.39369887D-05  0.42022038D-05  0.36800311D-05  0.23238937D-05
  0.36166983D-05  0.38603371D-05  0.33806453D-05  0.21348354D-05  0.13155965D-05
  0.14042217D-05  0.12297308D-05  0.77655966D-06 -0.38953893D-04  0.52376670D-04
  0.46928580D-04  0.16485730D-03 -0.24988987D-03 -0.21776551D-03  0.28220553D-04
  0.52670675D-04  0.89894765D-04  0.13970544D-03  0.18712556D-03  0.19221848D-03
  0.88239589D-04  0.26147946D-04  0.13859401D-03 -0.46451325D-03 -0.19784571D-02
 -0.31376760D-04 -0.33490455D-04 -0.29328876D-04 -0.18520820D-04  0.57607796D-04
  0.61488543D-04  0.53847876D-04  0.34004263D-04  0.48325023D-04  0.51580436D-04
  0.45170967D-04  0.28524903D-04 -0.11740385D-04  0.63906855D-04  0.46825534D-04
 -0.10081367D-03  0.41677254D-03  0.31270310D-03  0.11817283D-02  0.22055709D-02
  0.37643200D-02  0.58501291D-02  0.78358345D-02  0.80490992D-02  0.55928189D-02
  0.16573142D-02 -0.37351442D-03  0.10726229D-02 -0.21281043D-02  0.75977524D-04
  0.81095748D-04  0.71018658D-04  0.44847397D-04  0.23096099D-03  0.24651967D-03
  0.21588673D-03  0.13632978D-03  0.13503119D-03  0.14412757D-03  0.12621804D-03
  0.79705119D-04  0.11804483D-03 -0.26769975D-03 -0.21628669D-03  0.13137571D-02
  0.15951806D-02  0.70390995D-03  0.17975361D+00  0.33549110D+00  0.57259364D+00
  0.88986768D+00  0.11919149D+01  0.12243547D+01  0.79144455D+00  0.23452794D+00
  0.14404364D-01 -0.70346230D-02  0.38969317D-03  0.40024599D-03  0.42720855D-03
  0.37412292D-03  0.23625396D-03  0.20809750D-03  0.22211599D-03  0.19451549D-03
  0.12283411D-03  0.25425767D-04  0.27138573D-04  0.23766290D-04  0.15008116D-04
 -0.15313197D-04 -0.24959545D-03 -0.16531681D-03 -0.17501705D-02 -0.81216640D-03
 -0.44796819D-04  0.18305920D-05  0.34166063D-05  0.58312338D-05  0.90623194D-05
  0.12138336D-04  0.12468701D-04  0.25258484D-04  0.74848203D-05 -0.27648067D-04
 -0.10244744D-03 -0.71199521D-03  0.12457604D-03  0.13296810D-03  0.11644527D-03
  0.73533734D-04  0.12863541D-04  0.13730093D-04  0.12023969D-04  0.75929865D-05
 -0.27360110D-04 -0.29203223D-04 -0.25574383D-04 -0.16149904D-04 -0.89203297D-05
  0.12304255D-03  0.86245533D-04  0.42951154D-03 -0.21428290D-03 -0.27033472D-03
 -0.64468395D-04 -0.12032344D-03 -0.20535995D-03 -0.31914986D-03 -0.42747869D-03
 -0.43911320D-03 -0.11462126D-03 -0.33965599D-04 -0.27646518D-03  0.41918921D-03
  0.24013934D-02 -0.23606602D-03 -0.25196860D-03 -0.22065857D-03 -0.13934314D-03
 -0.14113797D-04 -0.15064573D-04 -0.13192624D-04 -0.83309779D-05  0.58849513D-04